 operating system is UNIX !
 hostname is         compute-2-16.local

 force (compute-2-16.local) : TURBOMOLE V6.4 2 Apr 2012 at 15:30:49
 Copyright (C) 2012 TURBOMOLE GmbH, Karlsruhe


    2017-12-21 13:00:50.289 



                             T U R B O M O L E   

                          a o f o r c e - program

                        using direct algorithms for

                       SCF level calculations of
                         * harmonic force constants
                         * hyperpolarizabilities
                         * IR and RAMAN intensities

                       DFT level calculations of
                         * harmonic force constants
                         * IR intensities
                                                   
       Stephan Boecker, Peter Deglmann, Filipp Furche and Marco Haeser
                          Quantum Chemistry Group
                          Universitaet  Karlsruhe
                                   Germany

 
 
 
 
     References :
 
       RI-J implementation:
         Peter Deglmann, Klaus May, Filipp Furche, Reinhart Ahlrichs
                 Chem. Phys. Lett. 384:103 (2004)
 
       Efficiency, technical details:
         Peter Deglmann, Filipp Furche, Reinhart Ahlrichs
                 Chem. Phys. Lett. 362:511 (2002)
 
       Search of lowest eigenvalues by iterative diagonalization:
         Peter Deglmann, Filipp Furche
                 J. Chem. Phys. 117:9535 (2002)
 
 


              +--------------------------------------------------+
              | Atomic coordinate, charge and isotop information |
              +--------------------------------------------------+


              atomic coordinates              atom shells charge pseudo isotop
    -9.69340859   -0.68663733   -0.95183272    cl    13   17.000    0     0
     7.47862662   -4.83430139    0.18415609    o     11    8.000    0     0
     3.71478057   -3.60681153   -0.91954769    o     11    8.000    0     0
     2.63714896    1.71139587    0.23262315    n     11    7.000    0     0
     6.51106044    3.00206330   -1.13176923    n     11    7.000    0     0
     6.37257443   -0.87383114    0.94598224    n     11    7.000    0     0
     5.80899977   -3.27769618   -0.03844426    n     11    7.000    0     0
    -6.04425811    0.98442096    1.96900055    n     11    7.000    0     0
     2.22665781    4.37303275   -0.45021290    c     11    6.000    0     0
     1.07890744    0.58874533    2.19516472    c     11    6.000    0     0
     4.73554510    5.03931266   -1.79678301    c     11    6.000    0     0
     5.18504713    1.30829954   -0.04953707    c     11    6.000    0     0
    -1.61065958    0.22446844    1.32302818    c     11    6.000    0     0
    -2.17005006   -1.16909730   -0.84811687    c     11    6.000    0     0
    -3.62488720    1.25943609    2.64565834    c     11    6.000    0     0
    -4.66063910   -1.47000273   -1.57541455    c     11    6.000    0     0
    -6.51190197   -0.34120613   -0.07357380    c     11    6.000    0     0
     1.94413024    5.49229270    1.27168764    h      6    1.000    0     0
     0.56140083    4.59107236   -1.63797682    h      6    1.000    0     0
     1.10091684    1.77955790    3.89389730    h      6    1.000    0     0
     1.89192621   -1.22728240    2.70957174    h      6    1.000    0     0
     4.51144472    5.06044762   -3.84924638    h      6    1.000    0     0
     5.48230945    6.87282366   -1.23515808    h      6    1.000    0     0
     8.27467671   -0.69196093    1.03431834    h      6    1.000    0     0
    -0.65534626   -1.99852614   -1.94101880    h      6    1.000    0     0
    -3.29323880    2.37194450    4.33577367    h      6    1.000    0     0
    -5.17861196   -2.53597655   -3.23600246    h      6    1.000    0     0
 

     center of nuclear mass  :    0.00000000    0.00000000    0.00000000

     center of nuclear charge:    0.10822512    0.07738679    0.01018623


              +--------------------------------------------------+
              |               basis set information              |
              +--------------------------------------------------+


              we will work with the  1s 3p 5d  7f  9g ... basis set
              ...i.e. with spherical basis functions...


   type   atoms  prim   cont   basis
   ---------------------------------------------------------------------------
    cl       1     58     37   def-TZVPP   [5s5p2d1f|14s9p2d1f]
    o        2     46     31   def-TZVPP   [5s3p2d1f|11s6p2d1f]
    n        5     46     31   def-TZVPP   [5s3p2d1f|11s6p2d1f]
    c        9     46     31   def-TZVPP   [5s3p2d1f|11s6p2d1f]
    h       10     16     14   def-TZVPP   [3s2p1d|5s2p1d]
   ---------------------------------------------------------------------------
   total:   27    954    673
   ---------------------------------------------------------------------------

   total number of primitive shells          :   94
   total number of contracted shells         :  249
   total number of cartesian basis functions :  768
   total number of SCF-basis functions       :  673


 symmetry group of the molecule :   c1 

 the group has the following generators :
   c1(z)

    1 symmetry operations found

 there are 1 real representations :   a   

 maximum number of shells which are related by symmetry :  1


 determining totally symmetric integral contributions 
    - equivalent to irreducible tensor elements - 
 which can be formed within each triple of representations :

             representation triple      contributions

              a     a     a               1

    mo occupation :
   irrep   mo's   occupied
    a      673       66
 
 number of basis functions   :          673
 number of occupied orbitals :           66
 
  MOs are in ASCII format !


 reading orbital data $scfmo  from file mos . 

 orbital characterization : scfconv=6
 

         --------------------------------------------------------------
                   checking mo's by calculating trace(D*S)

              number of electrons : 
                 from trace(D*S)         :  131.999999986772
                 from occupation numbers :  132.000000000000

              molecular charge           :    0.000000000000
         --------------------------------------------------------------

 time elapsed for calculating density matrices :   0.096 sec

 number of non-frozen orbitals          :   673
 number of non-frozen occupied orbitals :    66
 Blocking parameters 
 shells:
    index      start shell   last shell  start bf    last bf    #bf 
       1             1         129             1        157    157
       2           130         182           158        316    159
       3           183         211           317        472    156
       4           212         235           473        628    156
       5           236         249           629        768    140
  
           ------------------
           density functional
           ------------------
 Becke-3-Parameter hybrid functional: B3-LYP
 exchange:    0.8*LDA + 0.72*B88 + 0.2*HF
 correlation: 0.19*LDA(VWN) + 0.81*LYP
 iterations will be done with small grid
  
 spherical integration : Lebedev's spherical grid
 spherical gridsize    :           3
    i.e. gridpoints    :         302
 value for diffuse not defined
 radial integration    : Chebyshev 2nd kind (scaling 3)
 radial gridsize       :           3
 integration cells     :          27
 partition function    : becke
 partition sharpness   :           3
  
 
 Derivatives of quadrature weights will be included
 
          Overall gridpoints after grid construction =        138654
 Ordering of quadrature gridpoints disabled.
 
 
 
 
 OCCUPIED-OCCUPIED TENSOR SPACES :

          IRREP   tensor space dimension   number of roots

           a              4356                  75
 
 OCCUPIED-VIRTUAL TENSOR SPACES :

          IRREP   tensor space dimension   number of roots

           a             40062                  75
 
 
 
 
 CONSTRUCTING integral bounds

 setting up bound for integral derivative estimation

 increment for numerical differentiation : 0.00050000
 
 machine precision:   2.220446049250313E-016

 integral neglect threshold       :  0.10E-09
 integral storage threshold THIZE :  0.10E-04
 integral storage threshold THIME :         5

 
 
 
 PREPARING NUMERICAL INTEGRATION
 
 Remaining core memory for DFT =         149 MB
 
 Memory needed per atom    =        6921 KiB
 
     i. e.          21 atoms per loop

 Calculating ground state density on molecular grid

 Integral of ground state density: N =   131.9999301471392    


 
 
 CONSTRUCTING first deriv. of <mu|x,y,z|nu> -> Dip. deriv.
  dipole integral derivatives will be neglected if
  expon. factor <0.651042E-11
      ...terminated. cpu:       0.13       wall:       0.14
 
 
 
 
 CONSTRUCTING first deriv. of  <mu|nu>
                               <mu|h|nu>    -> RHS
              second deriv. of <mu|nu>      -> Hessian
                               <mu|h|nu>    -> Hessian
                               nucl. rep.   -> Hessian
     integrals are neglected if expon. factor <  6.510416666666665E-013
  _________________________________
 |                                 |
 |         DFTD3 V2.0 Rev 1        |
 | S.Grimme, University Muenster   |
 | Wed Mar 10 08:38:00 CET 2010    |
 |   see standalone version        |
 |       dftd3 -h for options      |
 |_________________________________|
 
 Please cite DFT-D3 work done with this code as:
 S. Grimme, J. Antony, S. Ehrlich and H. Krieg,
 J. Chem. Phys, 132 (2010), 154104.
 If used with BJ-damping cite also
 S. Grimme, S. Ehrlich and L. Goerigk,
 JCC, submitted.
 For DFT-D2 the reference is
 S. Grimme, J. Comput. Chem., 27 (2006), 1787-1799
 
      ...terminated. cpu:      16.63       wall:      17.24
 
 
 
 
 CONSTRUCTING second deriv. of 2e energy    -> Hessian
   treating Coulomb (and exchange) contribution
     integrals will be neglected if total contribution <  6.510416666666666E-009
      ...terminated. cpu:    4807.36       wall:    4808.39
   treating exchange-correlation contribution
      ...terminated. cpu:    1317.26       wall:    1317.54
 
 
 
 
 CONSTRUCTING S(i,j)xi
      ...terminated. cpu:       0.19       wall:       0.21
 
 
 
 
 CONSTRUCTING <i|x,y,z|j>*S(i,j)xi          -> Dip. deriv.
      ...terminated. cpu:       0.17       wall:       0.17
 
 
 
 
 CONSTRUCTING epsilon(i)*S(i,j)xi*S(i,j)chi -> Hessian
      ...terminated. cpu:       0.02       wall:       0.02
 
 
 
 
 CONSTRUCTING G(a,i)[S(k,l)xi]              -> RHS
              G(i,j)[S(k,l)xi]*S(i,j)chi    -> Hessian
 
         Maximum core memory set to          200 MB
         This corresponds to          44 vectors in CAO basis
      ...terminated. cpu:   14421.91       wall:   14425.18
 
 
 
 
 CONSTRUCTING G(mu,nu)[D(kap,lam)]xi
 
          Maximum core memory set to          200 MB
          Atoms treated simultaneously :          26
      ...terminated. cpu:    8197.94       wall:    8199.77
 
 
 
 
 CONSTRUCTING F(a,i)xi                      -> RHS
              F(i,j)xi*S(i,j)chi            -> Hessian
 
        Maximum core memory set to         200 MB
        This corresponds to          78 vectors in CAO basis
      ...terminated. cpu:      10.70       wall:      10.91
 
 
 
 
 CONSTRUCTING epsilon(i)*S(a,i)xi           -> RHS
      ...terminated. cpu:       2.00       wall:       2.03
 
 
 
 
 SOLVING CPHF equations
 
 Residuum convergence criterium   :  1.000000000000000E-005
 
 Maximum number of Davidson iterations set to          25
  Switching to small grid
        preparing numerical integration ....
          Overall gridpoints after grid construction =         38399

 Calculating ground state density on molecular grid

 Integral of ground state density: N =   131.9995749984433    




                       Block Davidson iteration


 total number of roots to be determined:  75


 maximum core memory set to   200 MB,
 corresponding to       44 vectors in CAO basis


 maximum number of simultaneously treated vectors (including degeneracy):  75


 Recommendation for optimum performance: Increase the maximum amount of
 allocatable core memory (e.g. $rpacor, $maxcor) to   375 MB or to the
 maximum amount of core memory available on your machine.


 Iteration IRREP Converged      Max. Euclidean
                 roots          residual norm

    1       a        0        8.060192735462060D-02
 
    2       a        0        8.860729045353901D-03
 
    3       a        0        8.873547747522220D-04
 
    4       a        1        7.327874223785198D-05
 
    5       a       75        9.621864425477694D-06
 

 converged!

  Switching to fine grid
        preparing numerical integration ....
          Overall gridpoints after grid construction =        138654

 Calculating ground state density on molecular grid

 Integral of ground state density: N =   131.9999301471360    



 Iteration IRREP Converged      Max. Euclidean
                 roots          residual norm

    6       a        0        1.664943413714004D-04
 

 NOTE: Residual norms are larger than 1.00D-05 due to mgrid option!

      ...terminated. cpu:   94849.36       wall:   94871.77
 
 
 
 
 CONSTRUCTING <a|x,y,z|i>*U(a,i)xi          -> Dip. deriv.
      ...terminated. cpu:       0.28       wall:       0.29
 
 
 
 
 CONSTRUCTING RHS(a,i)xi*U(a,i)chi          -> Hessian
      ...terminated. cpu:       0.19       wall:       0.19
 
 
 
 

            -----------------------
            permanent dipole moment
            -----------------------

                                   x                y                z
    electronic part       :  -13.6103529153    -9.2046821827    -1.1211288170
     nuclear   part       :   14.2857152980    10.2150565070     1.3445825230
     total                :    0.6753623827     1.0103743242     0.2234537060

 with reference to the point :   0.0000000        0.0000000        0.0000000
 (given in atomic units)
    | dipole |       :    3.1408060528  debye

   ***  dipole moment & cartesian dipole gradients written onto
        $dipole, $dipgrad,  file=<dipgrad>  ***

             -----------------------------------
             rotational and vibrational analysis
             -----------------------------------


            ==============================================================
            ATOMIC WEIGHTS (average over the natural occurance of isotops)
            ==============================================================
            ('*' denotes special isotop !)
              1     cl               35.45300
              2     o                15.99940
              3     o                15.99940
              4     n                14.00670
              5     n                14.00670
              6     n                14.00670
              7     n                14.00670
              8     n                14.00670
              9     c                12.01115
             10     c                12.01115
             11     c                12.01115
             12     c                12.01115
             13     c                12.01115
             14     c                12.01115
             15     c                12.01115
             16     c                12.01115
             17     c                12.01115
             18     h                 1.00797
             19     h                 1.00797
             20     h                 1.00797
             21     h                 1.00797
             22     h                 1.00797
             23     h                 1.00797
             24     h                 1.00797
             25     h                 1.00797
             26     h                 1.00797
             27     h                 1.00797

          -------------------------------------------------
          CARTESIAN FORCE CONSTANT MATRIX (hartree/bohr**2)
         (translational & rotational space projected out)
          -------------------------------------------------

   ATOM              1 cl                          2 o 
                  dx        dy        dz        dx        dy        dz
   1 cl    dx  0.2004522
           dy  0.0151723 0.0222829
           dz  0.0437597 0.0172873 0.0427169
   2 o     dx -0.0006937-0.0000085-0.0001285 0.3991003
           dy  0.0005934 0.0000590 0.0001479-0.2736792 0.3789559
           dz -0.0001255 0.0000101-0.0000115 0.0660222-0.0111514 0.0576212
   3 o     dx -0.0007405-0.0000050-0.0001114-0.0944106 0.0298353-0.0384114
           dy  0.0000946 0.0000379 0.0000517 0.0544183 0.0288358 0.0198856
           dz -0.0001109 0.0000250 0.0000288-0.0335495 0.0111545 0.0214068
   4 n     dx -0.0019310-0.0005182-0.0004447 0.0013883 0.0020082 0.0006867
           dy -0.0003302 0.0000047-0.0000513 0.0010982-0.0019347-0.0001838
           dz  0.0000075 0.0000536 0.0000266 0.0012119 0.0011430 0.0003661
   5 n     dx -0.0010317-0.0001598-0.0002703-0.0000721 0.0015031 0.0009218
           dy -0.0004381-0.0000427-0.0000906 0.0020180-0.0045326-0.0029624
           dz  0.0004166 0.0000666 0.0001138-0.0015374 0.0023224 0.0008788
   6 n     dx -0.0002343-0.0000122-0.0000747 0.0093412 0.0493998 0.0126402
           dy  0.0002266 0.0001153 0.0000972 0.0266986-0.0855799-0.0214780
           dz  0.0000862 0.0000326 0.0000732 0.0097087-0.0108240 0.0224754
   7 n     dx  0.0011546 0.0000135 0.0001871-0.3199851 0.1954605-0.0370459
           dy -0.0007564-0.0001562-0.0002710 0.1876074-0.3194389 0.0153916
           dz  0.0001847-0.0000185-0.0000365-0.0394052 0.0127417-0.1015816
   8 n     dx -0.0225998-0.0219313-0.0356008-0.0005820 0.0005689-0.0000893
           dy -0.0217618-0.0058379-0.0112351 0.0000049 0.0001341-0.0000118
           dz -0.0352848-0.0111711-0.0208812-0.0000316 0.0001935 0.0000565
   9 c     dx -0.0001791 0.0000028-0.0000354 0.0004323 0.0001998 0.0001495
           dy  0.0004177 0.0000584 0.0000825-0.0005122 0.0005394-0.0001409
           dz  0.0001512 0.0000082 0.0000291 0.0002171 0.0002537 0.0000157
  10 c     dx  0.0015212 0.0001810 0.0001669 0.0003095-0.0012029-0.0001119
           dy  0.0010077-0.0006662 0.0010884-0.0005334-0.0007034-0.0002725
           dz  0.0002555 0.0007484-0.0001338-0.0001558 0.0006700 0.0005272
  11 c     dx  0.0000469-0.0000001 0.0000324 0.0002844-0.0006747-0.0001790
           dy  0.0002103 0.0000295 0.0000641-0.0000761 0.0003853-0.0000053
           dz -0.0001553-0.0000323-0.0000639 0.0003549 0.0004516 0.0001331
  12 c     dx  0.0019444 0.0002254 0.0005313 0.0025152-0.0090451-0.0053714
           dy -0.0003295-0.0001316-0.0001268-0.0027763 0.0065867 0.0007248
           dz -0.0002723-0.0000156-0.0001102-0.0009239-0.0107469 0.0002319
  13 c     dx -0.0012234-0.0011553-0.0015694 0.0000809-0.0003312 0.0000456
           dy -0.0025845 0.0001308 0.0004936 0.0000735 0.0000160-0.0000103
           dz -0.0037161 0.0006952 0.0002651 0.0002090-0.0003198 0.0000132
  14 c     dx  0.0017214 0.0004330 0.0001681 0.0004626-0.0000427 0.0001812
           dy  0.0051763 0.0021044-0.0027844-0.0003313-0.0000173-0.0001016
           dz  0.0073862-0.0033090 0.0000273-0.0008691 0.0000406-0.0003728
  15 c     dx  0.0009637 0.0016877 0.0019028 0.0002576-0.0000923 0.0000669
           dy  0.0024858 0.0048672-0.0034645-0.0001360 0.0001667-0.0000268
           dz  0.0031688-0.0037057 0.0023657-0.0001380 0.0001691-0.0000329
  16 c     dx -0.0442443 0.0094652 0.0088282-0.0005316 0.0003064-0.0001423
           dy -0.0041571 0.0065083-0.0011204 0.0003806-0.0000914 0.0001060
           dz -0.0120146 0.0005013 0.0062264 0.0005106-0.0001632 0.0001405
  17 c     dx -0.1329736-0.0035812-0.0172130 0.0009047-0.0007569 0.0001718
           dy  0.0059929-0.0283718-0.0013907-0.0000174-0.0001235-0.0000520
           dz -0.0027187-0.0025718-0.0308369 0.0001405-0.0002054 0.0000181
  18 h     dx  0.0000579-0.0000072-0.0000133-0.0000248 0.0000320 0.0000093
           dy  0.0000413 0.0000118-0.0000013 0.0002728-0.0002806-0.0000439
           dz -0.0000362-0.0000134-0.0000054 0.0000409-0.0001745-0.0000073
  19 h     dx  0.0000321 0.0000208-0.0000024-0.0000916 0.0002520 0.0000408
           dy  0.0000768 0.0000189 0.0000095-0.0000362-0.0003266-0.0000455
           dz -0.0001117-0.0000199-0.0000426-0.0000163 0.0000843-0.0000187
  20 h     dx -0.0001503 0.0000594 0.0000712-0.0001936 0.0002675-0.0001208
           dy -0.0001299-0.0000327-0.0000238 0.0005258-0.0001959 0.0003303
           dz  0.0000070 0.0000277 0.0000790-0.0000159-0.0002866-0.0001653
  21 h     dx -0.0005135 0.0000807-0.0003127-0.0002860 0.0001791-0.0003271
           dy -0.0001125-0.0000188-0.0000604 0.0001622-0.0005797 0.0002524
           dz  0.0000299-0.0000129-0.0000552-0.0010196 0.0003754-0.0005399
  22 h     dx  0.0000214-0.0000031-0.0000003-0.0001333 0.0005547 0.0000934
           dy -0.0000133-0.0000085-0.0000037 0.0000427-0.0005546-0.0001097
           dz  0.0000770 0.0000055 0.0000299-0.0000818 0.0002769 0.0000482
  23 h     dx -0.0000505-0.0000116-0.0000242-0.0001569 0.0003872 0.0000044
           dy -0.0000792-0.0000041-0.0000276 0.0002129-0.0004559-0.0000649
           dz  0.0000050-0.0000019 0.0000161-0.0000121-0.0000937 0.0000740
  24 h     dx  0.0000978-0.0000032 0.0000173 0.0010862 0.0045396 0.0006925
           dy  0.0000309-0.0000172 0.0000080 0.0046780-0.0007159-0.0000023
           dz  0.0000829-0.0000020 0.0000154-0.0011202 0.0040055-0.0015598
  25 h     dx -0.0011821 0.0002282 0.0002897 0.0009652-0.0002588 0.0001923
           dy -0.0004494-0.0002380 0.0002355-0.0001269-0.0001262-0.0000623
           dz -0.0006739 0.0002884-0.0000521 0.0005980-0.0001736 0.0002681
  26 h     dx -0.0004463-0.0003241-0.0005680-0.0000046-0.0000563-0.0000192
           dy -0.0001128 0.0001245-0.0002118 0.0000498-0.0000090 0.0000245
           dz -0.0002210-0.0002223-0.0001005 0.0000237 0.0000670 0.0000223
  27 h     dx  0.0001804 0.0001506 0.0004145 0.0000376 0.0000525 0.0000254
           dy -0.0002719-0.0008280 0.0012978-0.0000105-0.0000128 0.0000000
           dz -0.0001771 0.0013462 0.0003164-0.0000324 0.0000417-0.0000072

   ATOM              3 o                           4 n 
                  dx        dy        dz        dx        dy        dz
   3 o     dx  0.5649855
           dy  0.0582623 0.1365812
           dz  0.2172206 0.0522210 0.1337452
   4 n     dx  0.0051725 0.0017551 0.0022801 0.6069116
           dy  0.0020602-0.0054502 0.0005845-0.0338609 0.4587919
           dz  0.0026521-0.0007456 0.0012709-0.1769223-0.1572111 0.2965163
   5 n     dx  0.0038097 0.0003978 0.0013692-0.0708720-0.0278584 0.0278466
           dy -0.0035735-0.0018476-0.0034256-0.0321360 0.0041950 0.0137190
           dz  0.0026915 0.0009969 0.0019179 0.0319474 0.0131445 0.0183805
   6 n     dx -0.0283472-0.0551919-0.0351224-0.0146955 0.0358367-0.0145470
           dy -0.0416985-0.0102179-0.0230388 0.0154226-0.0044073 0.0068879
           dz -0.0348762-0.0267045-0.0025784-0.0030164 0.0001761 0.0012969
   7 n     dx -0.4384644-0.0577334-0.1466207-0.0080808-0.0013542-0.0048390
           dy -0.0524978-0.1447869-0.0327629-0.0083890 0.0022670-0.0040859
           dz -0.1452642-0.0382422-0.1548112-0.0034410-0.0005310-0.0012447
   8 n     dx -0.0005444 0.0001498-0.0000894-0.0040077-0.0003958-0.0002463
           dy  0.0001184 0.0001103 0.0000772 0.0015343-0.0000082 0.0000691
           dz  0.0001443 0.0001614 0.0001150-0.0026979-0.0000869 0.0001953
   9 c     dx  0.0008667-0.0000377 0.0003180-0.0928510 0.0184606 0.0099208
           dy -0.0007344 0.0003711-0.0002760 0.0263578-0.1664142 0.0322498
           dz  0.0007141-0.0012521 0.0002484 0.0161361 0.0062331-0.0751428
  10 c     dx -0.0006779-0.0010204 0.0000736-0.1136477-0.0103800 0.0454490
           dy -0.0014795-0.0015251-0.0009562-0.0023221-0.1063591 0.0383501
           dz  0.0019703 0.0006387-0.0019874 0.0657795 0.0590114-0.1364506
  11 c     dx -0.0009033-0.0001161-0.0004440-0.0157441-0.0173296 0.0071756
           dy -0.0000635 0.0004154 0.0000467-0.0190964-0.0213018 0.0198003
           dz -0.0007207-0.0000952-0.0004143 0.0065718 0.0102778-0.0094046
  12 c     dx -0.0152312-0.0029422-0.0067741-0.2657587 0.0418040 0.0558642
           dy  0.0096528 0.0075336 0.0031660 0.0256653-0.1012904 0.0278231
           dz -0.0017622-0.0016913-0.0015290 0.0240265 0.0307228-0.0729391
  13 c     dx  0.0002863-0.0003152-0.0007160-0.0331325-0.0061449 0.0080100
           dy  0.0001342-0.0001081-0.0001171-0.0161472-0.0001653 0.0023040
           dz  0.0001094-0.0001680 0.0000394 0.0304684 0.0004901 0.0084765
  14 c     dx  0.0002978 0.0001622 0.0002393 0.0011034 0.0000126-0.0006489
           dy -0.0005313-0.0000323-0.0004058 0.0010057 0.0002008-0.0026772
           dz -0.0021017-0.0003618-0.0006880 0.0016581-0.0002066-0.0011954
  15 c     dx  0.0003383 0.0001197 0.0002992-0.0005138 0.0017867-0.0007940
           dy -0.0001760 0.0000656 0.0000513-0.0043037-0.0008893 0.0001010
           dz -0.0001484 0.0000758 0.0000279-0.0026503-0.0000637-0.0004619
  16 c     dx -0.0007234-0.0000214-0.0001864-0.0002697 0.0000683 0.0006457
           dy  0.0006846 0.0001839 0.0002826 0.0010139 0.0001564 0.0002848
           dz  0.0008663 0.0001555 0.0003223 0.0000459 0.0006052 0.0007238
  17 c     dx  0.0010209-0.0001018 0.0001565 0.0020786 0.0001567-0.0002371
           dy -0.0002202-0.0001273-0.0000323 0.0013864 0.0000474 0.0004283
           dz  0.0000830-0.0000780-0.0000355 0.0019224 0.0002329 0.0003689
  18 h     dx -0.0000766 0.0000379-0.0000251 0.0019541 0.0060737 0.0058969
           dy  0.0002101-0.0006149 0.0000889 0.0133044-0.0353679-0.0210107
           dz -0.0001300 0.0000778 0.0000254-0.0016202 0.0041207 0.0121047
  19 h     dx  0.0001914 0.0001740 0.0001289 0.0012743 0.0045302 0.0008655
           dy -0.0002223-0.0001094-0.0001366 0.0313948-0.0119341 0.0193640
           dz -0.0000556 0.0001019-0.0000726-0.0057799 0.0060137-0.0010575
  20 h     dx -0.0003021 0.0001268 0.0001113-0.0068994 0.0083405 0.0242895
           dy  0.0013363 0.0001712-0.0001955-0.0027701 0.0089939 0.0144280
           dz -0.0005756-0.0001647 0.0001790 0.0169890-0.0053970-0.0282199
  21 h     dx -0.0008011 0.0000357 0.0003337 0.0076074-0.0213323 0.0068428
           dy  0.0002778-0.0011168-0.0011863 0.0024211-0.0155200 0.0058845
           dz -0.0018139-0.0005804-0.0002472-0.0077334 0.0283734-0.0110962
  22 h     dx  0.0002379 0.0001813 0.0001378 0.0024065-0.0013096 0.0006583
           dy -0.0002929-0.0001667-0.0002087-0.0013882 0.0003763-0.0009653
           dz  0.0001529 0.0001319 0.0001615 0.0010166 0.0001479-0.0011831
  23 h     dx  0.0005147 0.0000771 0.0001578-0.0022264-0.0006910 0.0019367
           dy -0.0003132-0.0001900-0.0001743-0.0014650 0.0004044-0.0004214
           dz -0.0000659-0.0000256 0.0000910 0.0024045 0.0022834-0.0020104
  24 h     dx  0.0038657 0.0003497 0.0003455 0.0006272 0.0007096-0.0002942
           dy -0.0013853-0.0074726-0.0048483-0.0006934-0.0050818 0.0029579
           dz -0.0016553-0.0047894 0.0024852 0.0019977 0.0008954 0.0000949
  25 h     dx -0.0004209 0.0011306 0.0004452-0.0000143 0.0001056-0.0004019
           dy  0.0005710-0.0005550 0.0000047 0.0003761 0.0004116 0.0008163
           dz  0.0009958 0.0002928 0.0002183 0.0002294 0.0002394 0.0004830
  26 h     dx -0.0000507-0.0000554-0.0000675 0.0002035-0.0000856-0.0004760
           dy  0.0000745 0.0000292 0.0000620-0.0003782 0.0003516 0.0003289
           dz  0.0001133 0.0000847 0.0000783 0.0001599 0.0001407 0.0001403
  27 h     dx  0.0001067 0.0000625 0.0000892-0.0000827 0.0000288 0.0001335
           dy -0.0000239-0.0000147-0.0000001-0.0001773-0.0000766 0.0001236
           dz -0.0000211 0.0000230 0.0000024-0.0000142 0.0000385-0.0000384

   ATOM              5 n                           6 n 
                  dx        dy        dz        dx        dy        dz
   5 n     dx  0.4274576
           dy  0.1122130 0.5103657
           dz -0.1226957-0.2278918 0.2329587
   6 n     dx  0.0185264-0.0124628 0.0046051 0.7462364
           dy  0.0113502-0.0598229 0.0337752-0.0325848 0.4958289
           dz -0.0048190 0.0257584-0.0098127 0.1166964-0.0459047 0.1360055
   7 n     dx -0.0042902 0.0048014-0.0032310-0.1360025 0.0269752-0.0163618
           dy -0.0018086 0.0123872-0.0112154-0.0184852-0.1075444 0.0130548
           dz -0.0051608 0.0135455-0.0067755-0.0417935-0.0166226-0.0673209
   8 n     dx -0.0010946-0.0005045 0.0007161-0.0002498 0.0003013 0.0001656
           dy  0.0000385 0.0000703-0.0000184-0.0000918 0.0001961 0.0001749
           dz -0.0005735-0.0001363 0.0003723-0.0001051 0.0003531 0.0001494
   9 c     dx -0.0391238 0.0166053 0.0024643-0.0054005-0.0001303 0.0016468
           dy  0.0099192-0.0079934-0.0001142-0.0027258 0.0011177 0.0011581
           dz  0.0028360 0.0045421 0.0017625 0.0011715 0.0033416 0.0018470
  10 c     dx  0.0009971 0.0019182 0.0001136 0.0001243-0.0032804 0.0007253
           dy  0.0100874 0.0049183 0.0012773 0.0007381-0.0021144 0.0004661
           dz -0.0051362 0.0013646 0.0062462-0.0017387 0.0012648-0.0000440
  11 c     dx -0.1105955 0.0646434-0.0248082-0.0004302-0.0034342 0.0039353
           dy  0.0195465-0.1209305 0.0182499-0.0013021-0.0012705 0.0052193
           dz -0.0011602 0.0073714-0.0809259 0.0047548-0.0010867 0.0112204
  12 c     dx -0.2262897-0.1835799 0.1273136-0.1542312 0.0293715-0.0421842
           dy -0.1369789-0.3061996 0.1428271 0.0579564-0.1564787 0.0437497
           dz  0.0991745 0.1517149-0.1607368-0.0558187 0.0569766-0.0815199
  13 c     dx -0.0004099 0.0005355 0.0007943 0.0000893-0.0003630-0.0003930
           dy -0.0010383 0.0000923 0.0006861 0.0001332 0.0003334-0.0005292
           dz  0.0022891 0.0001213-0.0016432 0.0000347-0.0002445 0.0002362
  14 c     dx -0.0001255 0.0001087 0.0002357-0.0000062 0.0005581 0.0003890
           dy  0.0003162 0.0000174-0.0001127 0.0000050-0.0003161-0.0001967
           dz  0.0005790-0.0002599-0.0001267-0.0001380-0.0007654-0.0004161
  15 c     dx -0.0000086 0.0000078-0.0002265 0.0001549-0.0000079 0.0001059
           dy -0.0007500-0.0001275 0.0004446-0.0000275 0.0000954-0.0000098
           dz -0.0005001-0.0002860 0.0003058-0.0001007 0.0000594 0.0001159
  16 c     dx -0.0004291-0.0002794-0.0000683-0.0000669-0.0000660-0.0000043
           dy  0.0001198 0.0001199-0.0000250 0.0000625 0.0002323 0.0001635
           dz  0.0000355 0.0001076-0.0000279 0.0001000 0.0001794 0.0001440
  17 c     dx  0.0012319 0.0005182-0.0004006 0.0002791-0.0002513-0.0000610
           dy  0.0003086-0.0000085-0.0002298 0.0000685-0.0002465-0.0000805
           dz  0.0004157 0.0001432-0.0004234 0.0001361-0.0002017-0.0001154
  18 h     dx -0.0017219 0.0006228-0.0006868-0.0002860 0.0000142 0.0000235
           dy  0.0013145 0.0020971-0.0004765 0.0007518-0.0001073 0.0004018
           dz  0.0008289-0.0021584-0.0004221-0.0002925-0.0005477-0.0003070
  19 h     dx -0.0031568 0.0005943-0.0000882-0.0000313 0.0005578-0.0002161
           dy -0.0000195 0.0002706-0.0001415 0.0018373-0.0007263-0.0007352
           dz  0.0035071-0.0015991 0.0001574-0.0003043 0.0000925 0.0002011
  20 h     dx -0.0020092-0.0015767-0.0005620-0.0001445 0.0003385-0.0003381
           dy -0.0008533-0.0013984-0.0004756 0.0003045 0.0002967 0.0002736
           dz  0.0028521 0.0015929-0.0002312 0.0002007-0.0008239 0.0000635
  21 h     dx  0.0000029 0.0004094 0.0001462-0.0006933 0.0003177 0.0003888
           dy -0.0004189-0.0000096 0.0000096 0.0001413-0.0003397-0.0017880
           dz  0.0000307-0.0004623-0.0001842-0.0000038-0.0011331-0.0003001
  22 h     dx -0.0025149 0.0079035-0.0235717 0.0007520 0.0007931 0.0011089
           dy  0.0070851-0.0068276 0.0295181-0.0010877-0.0012939-0.0017241
           dz -0.0050322 0.0099015-0.0053843 0.0000862 0.0012488 0.0001162
  23 h     dx  0.0104831 0.0241268 0.0062655 0.0001542 0.0015188-0.0019893
           dy -0.0032178-0.0253170-0.0007906 0.0000276-0.0017236 0.0018817
           dz  0.0018266 0.0113490 0.0037662-0.0001312 0.0003388-0.0006849
  24 h     dx  0.0012307-0.0027497 0.0002103-0.4350335-0.0331506-0.0310345
           dy -0.0013121 0.0006273-0.0017376-0.0231737-0.0655176-0.0038700
           dz  0.0008162-0.0022518-0.0000212 0.0096400 0.0067534-0.0110931
  25 h     dx -0.0000077 0.0002539-0.0000861 0.0001715 0.0005140 0.0002916
           dy  0.0003372 0.0000178-0.0001240-0.0001138-0.0005115-0.0001863
           dz  0.0001525 0.0002468-0.0001253 0.0001230 0.0002894 0.0001788
  26 h     dx  0.0001287 0.0000457-0.0000161 0.0000128-0.0001004-0.0000501
           dy -0.0000702-0.0000656-0.0000093 0.0000095 0.0000292 0.0000422
           dz -0.0000904 0.0000455-0.0000227-0.0000092 0.0001471 0.0000527
  27 h     dx -0.0001147-0.0000253 0.0000583 0.0000105 0.0001090 0.0000720
           dy -0.0000514-0.0000555 0.0000440-0.0000131-0.0000265 0.0000001
           dz -0.0000432 0.0000004 0.0000030-0.0000090 0.0000419 0.0000162

   ATOM              7 n                           8 n 
                  dx        dy        dz        dx        dy        dz
   7 n     dx  0.8931609
           dy -0.1278920 0.6158765
           dz  0.2047374 0.0269537 0.3354607
   8 n     dx  0.0009448-0.0008816 0.0000744 0.5136028
           dy -0.0000922-0.0004515-0.0002167 0.0541721 0.2229277
           dz -0.0001657-0.0005689-0.0002161 0.1286871 0.2031210 0.4118945
   9 c     dx -0.0014434-0.0007807-0.0008970-0.0003090 0.0000299-0.0001999
           dy  0.0014126-0.0010011 0.0003763 0.0008216-0.0003586 0.0003495
           dz -0.0017866 0.0006010-0.0007902-0.0000196-0.0000014-0.0002028
  10 c     dx  0.0004391 0.0031937 0.0003544 0.0015865-0.0002557 0.0024092
           dy  0.0032327 0.0018657 0.0003824 0.0038643 0.0050859-0.0043134
           dz -0.0007483-0.0023479-0.0008642 0.0044441-0.0051812 0.0019420
  11 c     dx  0.0011896 0.0020898 0.0009641-0.0000717 0.0000968-0.0000335
           dy  0.0002976 0.0010740 0.0008900 0.0001124-0.0000232 0.0000535
           dz -0.0002984 0.0053819 0.0005551-0.0001362-0.0000033-0.0001252
  12 c     dx  0.0272828 0.0244299 0.0298990 0.0022279 0.0002663 0.0011280
           dy -0.0004420-0.0644833 0.0005120-0.0007540 0.0003347-0.0005922
           dz  0.0217046 0.0020685 0.0068985-0.0006736-0.0001945-0.0003545
  13 c     dx -0.0003693 0.0008694 0.0002183-0.0711608-0.0008253-0.0129790
           dy -0.0004475 0.0002813 0.0003869 0.0345057 0.0346683 0.0227430
           dz -0.0001604 0.0004243-0.0000539 0.0408947 0.0192813 0.0544026
  14 c     dx -0.0011837-0.0005359-0.0006391-0.0322354-0.0221917-0.0351946
           dy  0.0007434 0.0005922 0.0004223-0.0220713-0.0162711-0.0148233
           dz  0.0015724 0.0013797 0.0011276-0.0360159-0.0155088-0.0346567
  15 c     dx -0.0004838-0.0001421-0.0002800-0.3069905-0.0106511-0.0433600
           dy  0.0002068-0.0002739 0.0000371-0.0282888-0.0816781-0.0279924
           dz  0.0003302-0.0003321-0.0000309-0.0704369-0.0264035-0.1123630
  16 c     dx  0.0008679-0.0001405 0.0002576 0.0595036 0.0314165 0.0506148
           dy -0.0007515-0.0003740-0.0003635-0.0014905-0.0067896-0.0431584
           dz -0.0008969-0.0003359-0.0004710 0.0019693-0.0395958-0.0370785
  17 c     dx -0.0016647 0.0009158-0.0003332-0.1194984-0.0136444-0.0261390
           dy  0.0001373 0.0004009 0.0001694-0.0127840-0.1493870-0.1213565
           dz -0.0002040 0.0004417 0.0000737-0.0251923-0.1208113-0.2555112
  18 h     dx  0.0001676 0.0000153-0.0000125-0.0000255 0.0000235 0.0000031
           dy -0.0005096 0.0008007-0.0001029-0.0000455 0.0000712-0.0000039
           dz  0.0001825 0.0002376 0.0001411-0.0001613 0.0000839-0.0000210
  19 h     dx -0.0002095-0.0007169-0.0002591 0.0000815-0.0000103 0.0000691
           dy  0.0004234 0.0006742 0.0003108 0.0001204 0.0000092 0.0000854
           dz  0.0000079-0.0001219 0.0000859 0.0001198-0.0001045 0.0000232
  20 h     dx  0.0003872-0.0003608 0.0001483 0.0001731 0.0002176 0.0002683
           dy -0.0017861-0.0003489-0.0006696-0.0007616 0.0000348 0.0000407
           dz  0.0006160 0.0008238 0.0002358-0.0003066 0.0004412 0.0000352
  21 h     dx -0.0008778 0.0011544 0.0021148-0.0011671-0.0014940 0.0004914
           dy  0.0017034 0.0017984 0.0000081-0.0004149-0.0005285-0.0001660
           dz  0.0043712 0.0001486 0.0010412-0.0005820-0.0000895-0.0000721
  22 h     dx -0.0005006-0.0002556-0.0001957 0.0000490-0.0000236-0.0000051
           dy  0.0007545 0.0000121 0.0004059-0.0000145-0.0000035-0.0000190
           dz -0.0002693-0.0007658-0.0004167 0.0000704 0.0000238 0.0000543
  23 h     dx -0.0006738-0.0013449-0.0003827-0.0000379-0.0000074-0.0000085
           dy  0.0003582 0.0015019 0.0004670-0.0000868 0.0000035-0.0000248
           dz  0.0001387-0.0001421-0.0002946 0.0000137 0.0000148 0.0000047
  24 h     dx -0.0088679-0.0045742 0.0000588 0.0000872 0.0000080 0.0000087
           dy -0.0461445-0.0011415-0.0010878 0.0000352 0.0000090 0.0000231
           dz -0.0201041-0.0131602-0.0099434 0.0000883 0.0000130-0.0000033
  25 h     dx -0.0024389-0.0007019-0.0009042-0.0000842-0.0005957-0.0005207
           dy  0.0006911 0.0004943 0.0003169-0.0006016-0.0022248 0.0015274
           dz -0.0009669-0.0004606-0.0006431-0.0004367 0.0015343-0.0009468
  26 h     dx  0.0000707 0.0001770 0.0000616-0.0151063-0.0196557-0.0306404
           dy -0.0001060-0.0000517-0.0000719-0.0060707-0.0034000 0.0000103
           dz -0.0001473-0.0002545-0.0001166-0.0102079-0.0013059-0.0072403
  27 h     dx -0.0001289-0.0001885-0.0001053-0.0024914 0.0033739 0.0041152
           dy  0.0000475 0.0000259 0.0000006 0.0024458 0.0033070-0.0042485
           dz -0.0000018-0.0000823-0.0000086 0.0029514-0.0041526 0.0004279

   ATOM              9 c                          10 c 
                  dx        dy        dz        dx        dy        dz
   9 c     dx  0.5593457
           dy -0.0600537 0.4435661
           dz  0.0546184 0.0464255 0.5542095
  10 c     dx  0.0068202-0.0028364-0.0038306 0.4812454
           dy -0.0194795-0.0140192 0.0223348-0.0546124 0.5847914
           dz  0.0030358 0.0048840-0.0099105 0.0190628 0.0288215 0.5092714
  11 c     dx -0.1239383-0.0271117 0.0363205-0.0016085 0.0012867-0.0017576
           dy -0.0140181-0.0781871 0.0031126 0.0029219-0.0068597-0.0013256
           dz  0.0297210 0.0063376-0.1019561-0.0000281 0.0016677-0.0011444
  12 c     dx -0.0186823 0.0422851-0.0231529-0.0274760-0.0179310 0.0062973
           dy  0.0376061-0.0223699 0.0012393-0.0140438 0.0046106-0.0108328
           dz -0.0071583-0.0042788 0.0057193 0.0240931-0.0090408-0.0083629
  13 c     dx  0.0016374-0.0008998 0.0001495-0.1799896-0.0108567-0.0393866
           dy -0.0012012-0.0001628-0.0002308-0.0052958-0.0788286-0.0158454
           dz  0.0011361-0.0009825 0.0005301-0.0406234-0.0149080-0.1000454
  14 c     dx -0.0002511-0.0000170-0.0002629-0.0089275-0.0188055-0.0295990
           dy  0.0001008 0.0000302-0.0001792-0.0066250-0.0006147-0.0016615
           dz -0.0001307 0.0004534-0.0004146-0.0106131-0.0058180-0.0061368
  15 c     dx  0.0000099-0.0000664-0.0002279-0.0277295 0.0106205 0.0110265
           dy -0.0000030 0.0005499 0.0004927 0.0001878 0.0050366 0.0049506
           dz  0.0000943 0.0006380 0.0007339-0.0067461 0.0062542 0.0090690
  16 c     dx -0.0001026 0.0000318-0.0000619 0.0050089 0.0006151-0.0003727
           dy -0.0000072-0.0000704-0.0000220 0.0003807 0.0023469-0.0053034
           dz -0.0001389-0.0000563-0.0001464 0.0008050-0.0058896-0.0026560
  17 c     dx  0.0000307-0.0002519-0.0003093-0.0029112-0.0005084 0.0000880
           dy  0.0000283-0.0001506-0.0001039 0.0008889-0.0005318-0.0016514
           dz  0.0001356-0.0003771-0.0000534 0.0013246-0.0014515-0.0019752
  18 h     dx -0.0571833 0.0146633 0.0207473-0.0000925-0.0010514-0.0005551
           dy  0.0144633-0.1108604-0.1032861 0.0019811 0.0017072-0.0039158
           dz  0.0217633-0.1053935-0.2246657-0.0000681 0.0014457 0.0032111
  19 h     dx -0.2198443 0.0174833-0.1256808-0.0001964 0.0001024 0.0000360
           dy  0.0107272-0.0482671 0.0074233 0.0016709 0.0005209-0.0001634
           dz -0.1262423 0.0115639-0.1425967-0.0011384 0.0001478 0.0002348
  20 h     dx -0.0001813 0.0019602-0.0006851-0.0493021-0.0025542-0.0059668
           dy -0.0003883 0.0036754 0.0025697-0.0043292-0.1383388-0.1139003
           dz -0.0000776-0.0029967 0.0008742-0.0095079-0.1135150-0.1969267
  21 h     dx -0.0026523-0.0005647 0.0026989-0.0880300 0.1009073-0.0274578
           dy -0.0022010 0.0009923 0.0015802 0.0907649-0.2562269 0.0575286
           dz  0.0033656-0.0011003-0.0024511-0.0212299 0.0500060-0.0631282
  22 h     dx  0.0007610 0.0029465 0.0277597 0.0000222-0.0011864 0.0006546
           dy  0.0010372 0.0007472 0.0070347-0.0000209-0.0000868 0.0000782
           dz  0.0000626-0.0022064-0.0117540-0.0004813-0.0001668-0.0001930
  23 h     dx -0.0075651-0.0219986-0.0077524 0.0004366-0.0011240-0.0006841
           dy -0.0017126-0.0021278-0.0015982 0.0001636 0.0000123-0.0005590
           dz  0.0062567 0.0136119 0.0035872-0.0003186 0.0007270 0.0004820
  24 h     dx -0.0002520-0.0004387 0.0000319 0.0000914 0.0001596-0.0001011
           dy  0.0009469 0.0004838-0.0003149-0.0004326-0.0000399 0.0005230
           dz  0.0001743 0.0003936 0.0006835-0.0001206 0.0000271 0.0003782
  25 h     dx  0.0000566-0.0001753 0.0001218 0.0001945-0.0003868 0.0000474
           dy -0.0000860-0.0003267-0.0001016 0.0005101-0.0018496 0.0011568
           dz  0.0000897-0.0002378 0.0000811 0.0012938 0.0019426-0.0003828
  26 h     dx  0.0000436 0.0000245 0.0000973 0.0013010 0.0009113 0.0022229
           dy -0.0000470 0.0001044-0.0000763-0.0007446-0.0023273 0.0013521
           dz -0.0000746-0.0003605-0.0002393-0.0013020 0.0015974-0.0010426
  27 h     dx -0.0000445 0.0000628-0.0000012 0.0004910-0.0007020-0.0012608
           dy -0.0000619 0.0000734-0.0000260 0.0003172 0.0001957-0.0003051
           dz  0.0000017-0.0000033 0.0000019 0.0002484-0.0002043 0.0000228

   ATOM             11 c                          12 c 
                  dx        dy        dz        dx        dy        dz
  11 c     dx  0.3940298
           dy  0.0794182 0.5743297
           dz  0.0187129 0.0105445 0.5690737
  12 c     dx  0.0116730 0.0125457-0.0121252 0.6852267
           dy  0.0011491-0.0585903 0.0319449 0.0262902 0.6935293
           dz -0.0018098 0.0280816-0.0144570-0.1065275-0.2502230 0.3312444
  13 c     dx -0.0001747 0.0005968-0.0003247-0.0014826-0.0030734-0.0013991
           dy -0.0000956 0.0003350-0.0003401 0.0014655-0.0022915-0.0000628
           dz  0.0004355-0.0002427 0.0003108-0.0001136 0.0053181-0.0010282
  14 c     dx -0.0000066-0.0001201-0.0000347 0.0005411-0.0005422-0.0005467
           dy -0.0000335-0.0000006 0.0000890-0.0002135 0.0005643 0.0002583
           dz -0.0001895-0.0001119 0.0002308-0.0004845 0.0009415 0.0001995
  15 c     dx -0.0000711 0.0000229 0.0001420-0.0006269-0.0005338 0.0008703
           dy -0.0000115 0.0001788-0.0002651 0.0004313-0.0008820-0.0002307
           dz -0.0001151 0.0000031-0.0001444 0.0005753-0.0006185-0.0001903
  16 c     dx  0.0000510 0.0001626 0.0000219 0.0006659 0.0002195 0.0003383
           dy  0.0000095-0.0000702 0.0000222-0.0000611-0.0001327-0.0001537
           dz  0.0000116-0.0000470 0.0000410-0.0001819-0.0003148 0.0000681
  17 c     dx -0.0001516-0.0002946 0.0001900-0.0023588 0.0002742 0.0002185
           dy -0.0000022-0.0000205 0.0001028-0.0006081 0.0004302 0.0002746
           dz  0.0000483 0.0000098 0.0001155-0.0008633 0.0004174 0.0005357
  18 h     dx -0.0008160 0.0118980 0.0228858 0.0000032-0.0003350-0.0004532
           dy -0.0005720 0.0053570 0.0080186-0.0090137-0.0032845 0.0003519
           dz  0.0007277-0.0040522-0.0119128 0.0011049 0.0021725-0.0001039
  19 h     dx -0.0159568 0.0019486-0.0137602-0.0014542-0.0008265 0.0006513
           dy -0.0053752 0.0020841-0.0058694-0.0026151-0.0040677 0.0052249
           dz  0.0126362-0.0027539 0.0096861 0.0035269 0.0007943-0.0021986
  20 h     dx -0.0000950 0.0005804-0.0000986 0.0050507 0.0003375 0.0023077
           dy -0.0000506 0.0007802-0.0000213 0.0020461 0.0004296 0.0008922
           dz  0.0006940-0.0006797 0.0004816-0.0070180 0.0006476-0.0017453
  21 h     dx  0.0004554-0.0011032 0.0002576 0.0011149-0.0015027 0.0000477
           dy  0.0005766-0.0006968 0.0002062 0.0018341-0.0005884 0.0004952
           dz -0.0004133 0.0014767 0.0001331-0.0017592 0.0014510 0.0010042
  22 h     dx -0.0496017-0.0034808-0.0261812-0.0071364-0.0009534-0.0006991
           dy -0.0052180-0.0477681-0.0071474 0.0053635 0.0001142 0.0021341
           dz -0.0239064-0.0054247-0.2991704-0.0030277-0.0022496 0.0019274
  23 h     dx -0.0875181-0.0906309-0.0288136-0.0046538 0.0027454 0.0018384
           dy -0.0887175-0.2486678-0.0677173 0.0048408-0.0009130-0.0026561
           dz -0.0284774-0.0729359-0.0719052 0.0003953 0.0015109 0.0003127
  24 h     dx -0.0001140 0.0000029 0.0002306-0.0127055 0.0017274 0.0027003
           dy -0.0004622-0.0005708 0.0001493 0.0339072 0.0073390-0.0000890
           dz  0.0003014 0.0000277-0.0003901-0.0169048 0.0001729-0.0029801
  25 h     dx  0.0000752-0.0000586 0.0000176-0.0001282-0.0005079 0.0000801
           dy -0.0000256-0.0000395 0.0000083-0.0013596 0.0002491 0.0001209
           dz  0.0000494-0.0000431 0.0000300-0.0004583-0.0004095 0.0000714
  26 h     dx -0.0000148-0.0000302-0.0000042-0.0003051 0.0000706 0.0000339
           dy -0.0000241 0.0000088 0.0000240 0.0001453-0.0000317 0.0001157
           dz  0.0000820 0.0000426 0.0000072 0.0002363 0.0000018 0.0000412
  27 h     dx  0.0000066 0.0000098-0.0000196 0.0002747-0.0000950-0.0000408
           dy -0.0000159 0.0000197-0.0000197 0.0001175 0.0000139-0.0000493
           dz  0.0000069-0.0000003-0.0000041 0.0000744-0.0000477 0.0000013

   ATOM             13 c                          14 c 
                  dx        dy        dz        dx        dy        dz
  13 c     dx  0.6529489
           dy -0.0300637 0.3188104
           dz  0.0036596 0.2242882 0.5187038
  14 c     dx -0.1338497 0.0031712-0.0027250 0.7300833
           dy -0.0308659-0.1387247-0.1083558-0.0520690 0.3134941
           dz -0.0543343-0.1047552-0.2348029-0.0145656 0.2465414 0.5178179
  15 c     dx -0.2290516 0.0381313 0.0415078 0.0564363 0.0334181 0.0554010
           dy  0.0781283-0.1230671-0.0699142 0.0076565-0.0100858-0.0281616
           dz  0.1013284-0.0728143-0.1689286 0.0155892-0.0258778-0.0271747
  16 c     dx  0.0083555-0.0465465-0.0690742-0.3349204-0.0029675-0.0338364
           dy -0.0233396 0.0089487 0.0006170-0.0389388-0.0873529-0.0418347
           dz -0.0350892-0.0014360-0.0000172-0.0881837-0.0380860-0.1287571
  17 c     dx -0.0045590 0.0100700 0.0158346-0.0549977 0.0029906-0.0027614
           dy  0.0182415-0.0307662-0.0286674 0.0352921 0.0241298 0.0287439
           dz  0.0274664-0.0297789-0.0513484 0.0463560 0.0248683 0.0508598
  18 h     dx -0.0000588 0.0000008-0.0000654-0.0001465-0.0000692-0.0000756
           dy -0.0003385-0.0000485 0.0003639 0.0000871-0.0001123-0.0001554
           dz  0.0000567-0.0000988-0.0002441-0.0000496-0.0000282-0.0000899
  19 h     dx -0.0002937-0.0002176-0.0001911 0.0000636-0.0001568 0.0002008
           dy -0.0004041 0.0000440 0.0000959-0.0000119-0.0001034 0.0000312
           dz -0.0001339-0.0002257-0.0000888 0.0000972 0.0001720 0.0003839
  20 h     dx -0.0020362-0.0191784-0.0256420-0.0061698 0.0003030-0.0006811
           dy  0.0010551-0.0020759-0.0025996-0.0011103 0.0008576-0.0005541
           dz -0.0032682-0.0089503-0.0096049-0.0021081-0.0002368 0.0007689
  21 h     dx -0.0174425 0.0255419-0.0074198 0.0011473 0.0002875 0.0014231
           dy -0.0000062 0.0074218-0.0017587-0.0009767 0.0003531-0.0009229
           dz -0.0064449 0.0089719-0.0012527-0.0004708-0.0001792 0.0003887
  22 h     dx  0.0001120-0.0000144-0.0000515-0.0000329 0.0000403 0.0000390
           dy  0.0000790 0.0000112 0.0000412-0.0000166 0.0000129-0.0000027
           dz -0.0001409 0.0000184-0.0000176 0.0000209-0.0000635-0.0000420
  23 h     dx  0.0001149 0.0000065 0.0000175-0.0000070 0.0000244 0.0000569
           dy -0.0000210-0.0000004 0.0001105 0.0000176 0.0000013-0.0000021
           dz -0.0000536 0.0000105-0.0000623 0.0000136-0.0000393-0.0000246
  24 h     dx -0.0000616-0.0000678-0.0000073-0.0000135 0.0000167 0.0000500
           dy -0.0000232 0.0000082-0.0000632 0.0000495-0.0000314-0.0000502
           dz  0.0000067-0.0001084-0.0001103-0.0000340 0.0000243 0.0000464
  25 h     dx  0.0100225-0.0029746-0.0037367-0.2127783 0.0856054 0.1113900
           dy  0.0127888-0.0010284-0.0088285 0.0850008-0.0953020-0.0700114
           dz  0.0204358-0.0113026-0.0088915 0.1096581-0.0692059-0.1365209
  26 h     dx  0.0066310 0.0123017 0.0179323-0.0037019 0.0021936 0.0021568
           dy -0.0032587-0.0005397-0.0117363 0.0027224 0.0040569-0.0036267
           dz -0.0046666-0.0102318-0.0088323 0.0029062-0.0038143 0.0012808
  27 h     dx -0.0049826 0.0003376-0.0010021-0.0025030-0.0162928-0.0251166
           dy -0.0000086 0.0067060-0.0030578 0.0001064 0.0025496-0.0017132
           dz -0.0012718-0.0030650 0.0039947-0.0007917-0.0035463-0.0017125

   ATOM             15 c                          16 c 
                  dx        dy        dz        dx        dy        dz
  15 c     dx  0.6470536
           dy -0.0148432 0.3424172
           dz  0.0311587 0.2735262 0.5686023
  16 c     dx -0.0691179 0.0076654 0.0056897 0.6626285
           dy  0.0172070-0.0064013 0.0017450 0.0006330 0.3180899
           dz  0.0188793 0.0008834-0.0035991 0.0584308 0.2819919 0.5621794
  17 c     dx -0.0106800-0.0290394-0.0449946-0.1943487 0.0746841 0.0995006
           dy -0.0612991-0.0059739-0.0179198 0.0374482-0.1200000-0.0686400
           dz -0.0930914-0.0154556-0.0298721 0.0433849-0.0643432-0.1647455
  18 h     dx  0.0000015-0.0000445-0.0000965 0.0001594-0.0000221 0.0000287
           dy -0.0001021-0.0001724-0.0002016 0.0000859 0.0000519 0.0000653
           dz  0.0001128-0.0000779-0.0003041 0.0001067-0.0000220 0.0000428
  19 h     dx -0.0000108-0.0001069-0.0000110 0.0000207 0.0000416 0.0000029
           dy -0.0003699-0.0000695-0.0000158-0.0001358 0.0000405-0.0000889
           dz  0.0001550-0.0001483-0.0001121-0.0000552 0.0000394-0.0000028
  20 h     dx  0.0009772-0.0015149-0.0021455 0.0003569-0.0008283-0.0013746
           dy  0.0014663 0.0000652-0.0000683 0.0004674-0.0000921-0.0003396
           dz  0.0025499-0.0000908-0.0000286 0.0003926-0.0002566-0.0005073
  21 h     dx -0.0014028-0.0004698-0.0024566-0.0006757-0.0005230 0.0008542
           dy  0.0000871 0.0001418 0.0000062 0.0008262-0.0000615 0.0002248
           dz  0.0004399-0.0003743-0.0009453 0.0004274-0.0003606 0.0001055
  22 h     dx -0.0000071 0.0000457 0.0000670-0.0000010-0.0000131-0.0000354
           dy -0.0000172-0.0000100 0.0000009-0.0000105 0.0000026-0.0000037
           dz -0.0000119 0.0000013-0.0000105 0.0000497-0.0000067 0.0000147
  23 h     dx  0.0000256-0.0000300-0.0000521-0.0000157 0.0000029 0.0000040
           dy  0.0000230-0.0000489-0.0000539-0.0000368 0.0000162 0.0000212
           dz  0.0000033 0.0000245 0.0000385-0.0000062-0.0000045 0.0000108
  24 h     dx -0.0000169 0.0000196 0.0000250 0.0000523-0.0000263-0.0000307
           dy  0.0000069 0.0000180 0.0000341 0.0000007 0.0000127 0.0000156
           dz -0.0000229 0.0000497 0.0000772 0.0000310-0.0000239-0.0000442
  25 h     dx  0.0004593-0.0008766-0.0020529-0.0163914 0.0124634 0.0164193
           dy -0.0010868 0.0035185-0.0057284-0.0038624 0.0070634 0.0016453
           dz -0.0025786-0.0056622-0.0017132-0.0081669 0.0033420 0.0098699
  26 h     dx -0.0580032-0.0161452-0.0251153-0.0008354-0.0002245-0.0003374
           dy -0.0161157-0.1275511-0.1291366 0.0002432-0.0002443 0.0004343
           dz -0.0249340-0.1292994-0.2361098 0.0003937 0.0003181 0.0000738
  27 h     dx -0.0019635-0.0000604-0.0002664-0.0749968-0.0373001-0.0601806
           dy  0.0007427 0.0001097 0.0007139-0.0355885-0.1220933-0.1318343
           dz  0.0009059 0.0006112 0.0006851-0.0576382-0.1319136-0.2419099

   ATOM             17 c                          18 h 
                  dx        dy        dz        dx        dy        dz
  17 c     dx  0.5152705
           dy -0.0350097 0.2996392
           dz -0.0128669 0.2245085 0.4847607
  18 h     dx -0.0000714 0.0000161 0.0000211 0.0557233
           dy -0.0001144 0.0000203 0.0000545-0.0188026 0.1343200
           dz  0.0000256 0.0000401 0.0000786-0.0269881 0.1153816 0.2369931
  19 h     dx -0.0000314-0.0000083-0.0000741 0.0040239-0.0009001 0.0023167
           dy -0.0001536-0.0000620-0.0000820-0.0134670 0.0034057-0.0104295
           dz  0.0001759 0.0000642 0.0000058-0.0221503 0.0007556-0.0168045
  20 h     dx  0.0001784 0.0000949 0.0002289 0.0002095-0.0005349-0.0007690
           dy  0.0002310 0.0004065 0.0004050 0.0003720 0.0005637-0.0019176
           dz  0.0000701 0.0001363 0.0002154-0.0003501 0.0015521 0.0004804
  21 h     dx  0.0003252 0.0001547 0.0004416-0.0000521 0.0002238-0.0000973
           dy -0.0004008 0.0003288 0.0005723 0.0000115 0.0004421 0.0000044
           dz -0.0001089 0.0003790 0.0004503-0.0000205 0.0002605 0.0003288
  22 h     dx -0.0000371-0.0000069-0.0000175-0.0037635-0.0021141 0.0031061
           dy -0.0000021 0.0000000 0.0000098-0.0003697 0.0005930 0.0006424
           dz -0.0001017-0.0000128-0.0000324 0.0022442 0.0012723 0.0000129
  23 h     dx  0.0000759 0.0000100 0.0000098 0.0020105 0.0002768-0.0001343
           dy  0.0001070 0.0000108 0.0000303 0.0002762 0.0015110 0.0005791
           dz  0.0000024-0.0000076-0.0000128-0.0004478 0.0003514 0.0014414
  24 h     dx -0.0001359-0.0000071-0.0000318 0.0000278-0.0000292-0.0000428
           dy -0.0000214-0.0000196-0.0000229 0.0000683-0.0001841 0.0000784
           dz -0.0000924-0.0000174-0.0000317 0.0000486 0.0000988-0.0001703
  25 h     dx -0.0033601-0.0006647-0.0023321-0.0000117 0.0000941 0.0000280
           dy -0.0006813 0.0066565-0.0038445 0.0000288 0.0000733 0.0000734
           dz -0.0024444-0.0038489 0.0030889-0.0000216 0.0000689 0.0000146
  26 h     dx -0.0029690-0.0011739-0.0033168-0.0000157-0.0000421-0.0000081
           dy  0.0007767 0.0081329-0.0033391-0.0000069 0.0000085-0.0000281
           dz -0.0003344-0.0034734 0.0051919 0.0000594 0.0001082 0.0001823
  27 h     dx  0.0093526 0.0117333 0.0185940 0.0000075 0.0000119-0.0000032
           dy -0.0059114-0.0044140-0.0091306 0.0000213-0.0000017 0.0000039
           dz -0.0080364-0.0073627-0.0107695-0.0000058 0.0000039 0.0000009

   ATOM             19 h                          20 h 
                  dx        dy        dz        dx        dy        dz
  19 h     dx  0.2354653
           dy -0.0230506 0.0591253
           dz  0.1349816-0.0153906 0.1506020
  20 h     dx  0.0000969-0.0002366-0.0001688 0.0594058
           dy  0.0000049-0.0003873-0.0002622 0.0060866 0.1418199
           dz -0.0002262 0.0002839-0.0000017-0.0001466 0.1243092 0.2258350
  21 h     dx  0.0000157-0.0001739 0.0001433 0.0010178-0.0014669 0.0003818
           dy  0.0000161-0.0001463 0.0001336 0.0073689-0.0153544 0.0030600
           dz -0.0001149 0.0000696 0.0000224 0.0102858-0.0226746 0.0075401
  22 h     dx  0.0020018 0.0005117-0.0002229 0.0001387 0.0001019-0.0004473
           dy  0.0004842 0.0009914-0.0002643 0.0000302 0.0000410 0.0000167
           dz  0.0001389-0.0001484 0.0018296 0.0000459-0.0000608-0.0000051
  23 h     dx -0.0020877-0.0006544 0.0011101 0.0000662 0.0000571-0.0000847
           dy -0.0002917-0.0003994 0.0008386-0.0000353 0.0000432 0.0001144
           dz  0.0011776 0.0004260-0.0001301 0.0000324-0.0000673-0.0000319
  24 h     dx  0.0001033 0.0000625-0.0000264 0.0000015-0.0000311-0.0000175
           dy  0.0000025-0.0004626 0.0001060 0.0000115-0.0000244 0.0000167
           dz  0.0000586-0.0000858-0.0000124 0.0000921-0.0001784-0.0000793
  25 h     dx -0.0000208 0.0001028-0.0000186 0.0000579 0.0001010 0.0001549
           dy  0.0000292-0.0001034-0.0000472 0.0000587 0.0000018 0.0001126
           dz -0.0000397 0.0000274-0.0000426 0.0000764 0.0002565 0.0000026
  26 h     dx  0.0000050 0.0000072-0.0000270-0.0001692-0.0003773-0.0005978
           dy  0.0000235-0.0000085 0.0000284 0.0006893 0.0002019 0.0002088
           dz -0.0000019-0.0000257-0.0000422 0.0008088 0.0004377 0.0008222
  27 h     dx  0.0000100-0.0000087-0.0000096-0.0004653-0.0001013-0.0001600
           dy  0.0000201-0.0000113 0.0000013-0.0000512-0.0001337 0.0000543
           dz -0.0000028 0.0000066-0.0000082-0.0000673 0.0000658-0.0000658

   ATOM             21 h                          22 h 
                  dx        dy        dz        dx        dy        dz
  21 h     dx  0.1032422
           dy -0.1012410 0.2798840
           dz  0.0224510-0.0643736 0.0693258
  22 h     dx -0.0002287-0.0001738 0.0001174 0.0577477
           dy -0.0000178-0.0000078 0.0000128-0.0025177 0.0531478
           dz  0.0000837 0.0000625-0.0000571 0.0302052-0.0003909 0.3238965
  23 h     dx -0.0002104-0.0001892 0.0003284-0.0004577-0.0037688-0.0012537
           dy  0.0000058-0.0000078-0.0000100-0.0010295 0.0006669-0.0015483
           dz  0.0001338 0.0001331-0.0002150-0.0123321-0.0291554-0.0098573
  24 h     dx -0.0000072-0.0000298 0.0000476 0.0001857-0.0001289 0.0000745
           dy -0.0000521-0.0000699-0.0000461 0.0000333 0.0000419-0.0000898
           dz -0.0002485-0.0000922 0.0002808-0.0001300 0.0000745 0.0000299
  25 h     dx  0.0001200 0.0000218-0.0001039-0.0000240 0.0000133-0.0000212
           dy  0.0002212-0.0000637 0.0000218-0.0000283-0.0000186 0.0000226
           dz -0.0006603 0.0000412-0.0003742-0.0000220 0.0000301-0.0000292
  26 h     dx -0.0000516-0.0000711-0.0000887 0.0000077 0.0000034-0.0000152
           dy  0.0004226 0.0000020-0.0001432 0.0000024-0.0000064 0.0000090
           dz -0.0002347 0.0001386 0.0002965-0.0000357-0.0000055 0.0000306
  27 h     dx  0.0000433 0.0000228 0.0000128-0.0000048-0.0000082 0.0000146
           dy -0.0000004-0.0000278-0.0000065-0.0000043-0.0000059 0.0000122
           dz -0.0000198 0.0000066 0.0000011 0.0000000 0.0000008 0.0000007

   ATOM             23 h                          24 h 
                  dx        dy        dz        dx        dy        dz
  23 h     dx  0.0916768
           dy  0.0911082 0.2757615
           dz  0.0294520 0.0716328 0.0753415
  24 h     dx  0.0001170-0.0001693-0.0000166 0.4496918
           dy  0.0000831-0.0000864 0.0000440 0.0338068 0.0729244
           dz  0.0000067-0.0000508 0.0000801 0.0271426 0.0082415 0.0222897
  25 h     dx -0.0000142 0.0000312-0.0000028-0.0000529 0.0000368-0.0000482
           dy  0.0000256 0.0000156 0.0000115 0.0000028-0.0000338-0.0000016
           dz -0.0000071 0.0000239-0.0000140-0.0000384 0.0000179-0.0000216
  26 h     dx  0.0000033 0.0000058 0.0000013-0.0000049-0.0000055 0.0000002
           dy -0.0000010-0.0000018 0.0000019-0.0000025 0.0000050-0.0000149
           dz  0.0000020 0.0000013-0.0000037 0.0000040 0.0000049-0.0000040
  27 h     dx -0.0000037-0.0000020 0.0000073 0.0000002 0.0000085-0.0000066
           dy  0.0000022-0.0000046 0.0000022 0.0000035 0.0000004-0.0000006
           dz -0.0000034-0.0000017 0.0000003 0.0000017 0.0000017 0.0000035

   ATOM             25 h                          26 h 
                  dx        dy        dz        dx        dy        dz
  25 h     dx  0.2232169
           dy -0.0928030 0.0874336
           dz -0.1188231 0.0805348 0.1370352
  26 h     dx  0.0004123 0.0006086 0.0010491 0.0726866
           dy -0.0003123-0.0005453-0.0002425 0.0221688 0.1228740
           dz -0.0004358-0.0001231-0.0006806 0.0378410 0.1453022 0.2467895
  27 h     dx  0.0011778-0.0000254 0.0005871 0.0001725-0.0000772 0.0000655
           dy -0.0003859-0.0029690 0.0024103-0.0001707-0.0011464 0.0006785
           dz  0.0000103 0.0024499-0.0009040-0.0000484 0.0006923-0.0005751

   ATOM             27 h 
                  dx        dy        dz
  27 h     dx  0.0759105
           dy  0.0389227 0.1188205
           dz  0.0639835 0.1450490 0.2505254
 

   *** projected hessian written onto $hessian (projected), file=<hessian> ***

 dipole moment in principle axis system (a.u.) :
     0.6753623827     1.0103743242     0.2234537060
 norm :   1.23567883439639     

 rotational constants b for rotations around axis of inertia
 and optical intensities for (1 <-- 0) transition

   b   :     0.0278388697     0.0066945396     0.0058730902   (cm**(-1))
   b   :         834.5883         200.6972         176.0708     (MHz)
  int. :     0.4561143480     1.0208562750     0.0499315587     (a.u.)

   x   :     1.0000000000     0.0000000000     0.0000000000
   y   :     0.0000000000     1.0000000000     0.0000000000
   z   :     0.0000000000     0.0000000000     1.0000000000

   ***  normal modes written onto $vibrational normal modes, file=<vib_normal_modes>  ***

 keyword $vibrational reduced masses missing in file <control>


   ***  vibrational spectroscopic data written onto$vibrational spectrum   
        file=<vibspectrum>  ***

          ---------------------------------------------------
          NORMAL MODES and VIBRATIONAL FREQUENCIES (cm**(-1))
          ---------------------------------------------------

 imaginary wave numbers indicate a negative curvature of the energy surface.
 zero frequency modes have no physical meaning except being generators of
 translations and rotations. each vibrational normal mode - given in terms of
 cartesian displacement vectors of all atoms - has been normalized to unity.
 to obtain mass-weigthed normal coordinates in a.u. divide the tabulated
 modes by sqrt(reduced mass * 1822.88853).
 band intensities or cross sections refer to independent non-degenerate normal
 modes, that is, the intensities of degenerate modes have yet to be added.
 dDIP/dQ is the normal mode derivative of the dipole moment.


       mode               1        2        3        4        5        6

     frequency           0.00     0.00     0.00     0.00     0.00     0.00

     symmetry                                                             

        IR                -        -        -        -        -        - 
|dDIP/dQ|   (a.u.)     0.0000   0.0000   0.0000   0.0000   0.0000   0.0000
intensity (km/mol)       0.00     0.00     0.00     0.00     0.00     0.00
intensity (  %   )       0.00     0.00     0.00     0.00     0.00     0.00
 
       RAMAN              -        -        -        -        -        - 
 
  1   cl          x   0.01791 -0.03667  0.14162  0.11526 -0.04038  0.01672
                  y   0.03648 -0.03506 -0.04420  0.07208  0.31413  0.14521
                  z  -0.33655  0.11852  0.07508 -0.09138  0.04490  0.05852
  2   o           x  -0.00347  0.03852  0.14830  0.11864 -0.14211  0.00016
                  y  -0.00706  0.18045 -0.07569  0.16977 -0.13256  0.00791
                  z  -0.17234 -0.23133 -0.14091  0.21417 -0.04817 -0.19248
  3   o           x   0.01730  0.00711  0.14114  0.12860 -0.11117 -0.00798
                  y   0.03524  0.16311 -0.04818  0.13592 -0.01164  0.02959
                  z  -0.19613 -0.14351 -0.08589  0.14256 -0.01920 -0.14060
  4   n           x  -0.00438 -0.05819  0.15020  0.08701  0.01645  0.05758
                  y  -0.00891  0.10679 -0.07570  0.14759 -0.01654  0.05025
                  z  -0.01260  0.05534  0.04959  0.04978  0.12279 -0.17463
  5   n           x   0.02130 -0.09365  0.14129  0.10039  0.04920  0.04556
                  y   0.04337  0.21209 -0.04374  0.14605 -0.07369  0.00332
                  z   0.10976  0.05429  0.05454  0.08630  0.16173 -0.25317
  6   n           x  -0.01780 -0.01126  0.15440  0.08905 -0.04697  0.04735
                  y  -0.03625  0.13736 -0.09379  0.17563 -0.12626  0.02497
                  z  -0.04138 -0.07962 -0.03796  0.14074  0.05725 -0.21267
  7   n           x   0.00072  0.01273  0.14717  0.11446 -0.10415  0.00984
                  y   0.00147  0.16342 -0.06992  0.15864 -0.08611  0.02015
                  z  -0.14411 -0.15697 -0.09210  0.16768 -0.00807 -0.17943
  8   n           x  -0.03705 -0.02668  0.16175  0.06566 -0.00305  0.08081
                  y  -0.07546 -0.08297 -0.11548  0.13183  0.14708  0.14241
                  z  -0.20383  0.13345  0.09071 -0.06360  0.09383 -0.01994
  9   c           x   0.00847 -0.10590  0.14622  0.08418  0.08168  0.06900
                  y   0.01725  0.12457 -0.05914  0.13572  0.01178  0.04708
                  z   0.08167  0.15333  0.11653  0.00518  0.19400 -0.19385
 10   c           x  -0.04131 -0.01810  0.16319  0.06430 -0.01288  0.08123
                  y  -0.08412  0.01499 -0.12264  0.16879 -0.03161  0.08304
                  z  -0.08495  0.03466  0.03306  0.04387  0.09089 -0.13710
 11   c           x   0.03381 -0.13186  0.13729  0.10026  0.09929  0.05187
                  y   0.06886  0.20896 -0.02728  0.12798 -0.01276  0.01213
                  z   0.15442  0.14671  0.11564  0.03130  0.21465 -0.24305
 12   c           x   0.00093 -0.05557  0.14820  0.09295  0.00699  0.04930
                  y   0.00190  0.15453 -0.06951  0.15553 -0.07069  0.02544
                  z   0.01990  0.01086  0.02266  0.09202  0.11470 -0.21397
 13   c           x  -0.02490 -0.02309  0.15721  0.07847 -0.02076  0.06326
                  y  -0.05070  0.00552 -0.10097  0.14339  0.05704  0.09771
                  z  -0.14952  0.05400  0.04244  0.01077  0.07817 -0.08781
 14   c           x   0.01596 -0.02827  0.14221  0.11606 -0.05218  0.01431
                  y   0.03250  0.07314 -0.04850  0.10915  0.12904  0.08118
                  z  -0.21346  0.01193  0.01263  0.02306  0.04005 -0.06458
 15   c           x  -0.04979 -0.02270  0.16639  0.05470  0.00289  0.09469
                  y  -0.10139 -0.07068 -0.13237  0.15312  0.07024  0.12815
                  z  -0.14777  0.11421  0.08100 -0.03306  0.10385 -0.06376
 16   c           x   0.02965 -0.03247  0.13722  0.12786 -0.05869 -0.00065
                  y   0.06037  0.06156 -0.03037  0.08679  0.20897  0.09556
                  z  -0.27186  0.03110  0.02220 -0.00812  0.02926 -0.01930
 17   c           x   0.00138 -0.03134  0.14764  0.10109 -0.03296  0.03463
                  y   0.00282 -0.01848 -0.06613  0.09990  0.21340  0.12635
                  z  -0.26344  0.09266  0.06192 -0.05098  0.05764  0.00106
 18   h           x  -0.02393 -0.10200  0.15812  0.05431  0.10694  0.10794
                  y  -0.04873  0.06015 -0.10058  0.15944 -0.02772  0.06647
                  z   0.11925  0.19584  0.14542 -0.01515  0.22382 -0.20007
 19   h           x   0.03082 -0.12330  0.13825  0.10011  0.08825  0.05070
                  y   0.06277  0.14136 -0.03011  0.11056  0.08411  0.04979
                  z   0.05869  0.18081  0.13303 -0.02177  0.19807 -0.16770
 20   h           x  -0.07328 -0.01554  0.17495  0.03442  0.01414  0.12040
                  y  -0.14922 -0.04409 -0.16359  0.19362 -0.07788  0.09957
                  z  -0.03890  0.07605  0.06161  0.02685  0.12297 -0.14920
 21   h           x  -0.05099  0.01502  0.16623  0.06554 -0.05744  0.07427
                  y  -0.10384  0.00909 -0.13523  0.18012 -0.06516  0.08107
                  z  -0.13924 -0.03855 -0.01621  0.08191  0.04288 -0.13304
 22   h           x   0.07244 -0.15665  0.12343  0.12946  0.10202  0.01717
                  y   0.14751  0.27741  0.02225  0.09705  0.04792 -0.00614
                  z   0.15101  0.15012  0.11767  0.02779  0.21498 -0.23945
 23   h           x   0.02324 -0.15241  0.14152  0.08357  0.14311  0.07727
                  y   0.04733  0.20041 -0.04100  0.13968 -0.04598  0.01120
                  z   0.23874  0.20193  0.15480  0.01528  0.26481 -0.27379
 24   h           x  -0.01946 -0.01291  0.15504  0.08693 -0.04266  0.05043
                  y  -0.03964  0.16255 -0.09638  0.18591 -0.17473  0.00939
                  z   0.00139 -0.09594 -0.04643  0.16525  0.06420 -0.24678
 25   h           x   0.03653 -0.02897  0.13463  0.13558 -0.07110 -0.01144
                  y   0.07438  0.13388 -0.02251  0.10040  0.12175  0.05732
                  z  -0.21674 -0.03514 -0.01760  0.05676  0.01936 -0.08216
 26   h           x  -0.08159 -0.01908  0.17807  0.02531  0.02801  0.13303
                  y  -0.16616 -0.12486 -0.17319  0.17928  0.01671  0.14192
                  z  -0.09889  0.14917  0.10558 -0.04451  0.13416 -0.08035
 27   h           x   0.06090 -0.03643  0.12575  0.15661 -0.08272 -0.03809
                  y   0.12401  0.11194  0.00979  0.06017  0.26622  0.08369
                  z  -0.32246  0.00000  0.00000  0.00000  0.00000  0.00000

reduced mass(g/mol)    10.537    8.163    8.693    9.785    9.883    8.502


       mode               7        8        9       10       11       12

     frequency          25.12    41.01    50.87    70.81    84.84   105.09

     symmetry            a        a        a        a        a        a   

        IR               YES      YES      YES      YES      YES      YES
|dDIP/dQ|   (a.u.)     0.0012   0.0009   0.0007   0.0007   0.0010   0.0004
intensity (km/mol)       2.72     1.38     0.83     0.83     1.90     0.29
intensity (  %   )       0.51     0.26     0.16     0.16     0.36     0.05
 
       RAMAN             YES      YES      YES      YES      YES      YES
 
  1   cl          x   0.02017 -0.02487  0.13024  0.06556 -0.01421 -0.02976
                  y  -0.16422  0.11911  0.04361  0.04525 -0.04829 -0.07456
                  z   0.03987 -0.00513 -0.16971 -0.04881 -0.02782  0.04509
  2   o           x  -0.18607  0.12947 -0.06221 -0.22163  0.16471  0.05313
                  y  -0.07784  0.04861  0.00131 -0.10235  0.08404 -0.01631
                  z   0.03619  0.12215 -0.16453  0.40498 -0.21864  0.04973
  3   o           x  -0.14329  0.10083 -0.17268  0.15020  0.12151  0.05152
                  y   0.04611 -0.06217 -0.01710  0.19017  0.01439 -0.04717
                  z   0.02858  0.09144  0.19824 -0.54578 -0.14905  0.01269
  4   n           x   0.04007 -0.02129 -0.01506 -0.01363 -0.01389  0.01404
                  y   0.08559 -0.06675  0.04956  0.03960  0.00005  0.02205
                  z  -0.00879 -0.03676  0.15255  0.07028  0.10043  0.09261
  5   n           x   0.08279 -0.05650 -0.11927 -0.06385  0.00360 -0.04626
                  y  -0.04731  0.01055 -0.04658 -0.03067 -0.14897 -0.03912
                  z  -0.01283 -0.06168 -0.20972 -0.12339  0.02318 -0.10793
  6   n           x  -0.04614  0.04765  0.00657 -0.07429 -0.07783  0.03992
                  y  -0.03276  0.04574  0.00921  0.00942 -0.05149 -0.00586
                  z   0.00624  0.00920 -0.09531  0.01924  0.24040 -0.04263
  7   n           x  -0.13134  0.09556 -0.08498 -0.03569  0.08295  0.05031
                  y  -0.02090  0.00662 -0.00269  0.03195  0.01501 -0.02448
                  z   0.02481  0.07897 -0.01410 -0.04250 -0.06416  0.01108
  8   n           x  -0.01852 -0.00334  0.01793  0.02795 -0.07795 -0.00884
                  y  -0.16298 -0.16766 -0.04650 -0.04842  0.02792  0.09241
                  z   0.08905  0.12998  0.02952  0.05224  0.01810 -0.07518
  9   c           x   0.12155 -0.08328 -0.05175 -0.02582  0.01537  0.06581
                  y   0.09128 -0.08198  0.02546  0.02560 -0.04834  0.06795
                  z  -0.03450 -0.06031  0.09568  0.05004 -0.09311  0.25447
 10   c           x   0.00067  0.00523  0.02842  0.03021 -0.06615 -0.01408
                  y   0.14190 -0.08558  0.05109 -0.00720  0.09767 -0.06745
                  z  -0.01171 -0.02743  0.18272  0.07179  0.10961  0.01229
 11   c           x   0.15062 -0.11230 -0.14797 -0.09261  0.02513 -0.07657
                  y   0.00816 -0.04855 -0.04011 -0.04587 -0.18461 -0.03971
                  z  -0.02382 -0.09458 -0.11769 -0.11232 -0.14432 -0.03959
 12   c           x   0.02689 -0.01077 -0.05178 -0.03269 -0.02181 -0.00598
                  y   0.00139 -0.00636  0.00108  0.00727 -0.05608 -0.02316
                  z  -0.00528 -0.03170 -0.04925 -0.02824  0.13511 -0.02955
 13   c           x   0.01084 -0.00489  0.04105  0.03129 -0.05661 -0.01332
                  y   0.11240 -0.05468 -0.02096 -0.04719  0.09877  0.03369
                  z  -0.03481 -0.00783  0.16528  0.08938  0.07225 -0.04315
 14   c           x   0.04897 -0.02023  0.11492  0.05289 -0.00796 -0.01699
                  y   0.24856  0.14220 -0.01090 -0.04440  0.11129  0.06119
                  z  -0.13136 -0.12953  0.13970  0.08227  0.05261 -0.06074
 15   c           x  -0.02229  0.00249 -0.00481  0.02112 -0.08975 -0.00759
                  y  -0.08377 -0.20866 -0.05127 -0.06205  0.06520  0.08369
                  z   0.06917  0.12381  0.11776  0.08358  0.05041 -0.07363
 16   c           x   0.05315 -0.02707  0.14216  0.06130  0.00731 -0.01743
                  y   0.17456  0.19190 -0.01117 -0.03476  0.08025  0.07802
                  z  -0.11560 -0.12838  0.05379  0.05423  0.01567 -0.06793
 17   c           x   0.01753 -0.01768  0.09141  0.04962 -0.03105 -0.01667
                  y  -0.04120  0.03427 -0.01448 -0.02305  0.03067  0.05766
                  z   0.00145  0.00203 -0.00792  0.03091  0.00513 -0.05072
 18   h           x   0.14007 -0.08523  0.07963  0.09170  0.02797  0.36508
                  y   0.11322 -0.06854  0.08463  0.06552  0.08446  0.01487
                  z  -0.04610 -0.06917  0.07863  0.04460 -0.17716  0.34163
 19   h           x   0.13635 -0.10094 -0.13920 -0.09078  0.01949 -0.07943
                  y   0.12890 -0.12760 -0.00554  0.02746 -0.11606  0.21307
                  z  -0.04874 -0.04362  0.21144  0.14090 -0.11160  0.48559
 20   h           x  -0.02517  0.03088 -0.00232  0.02577 -0.08149 -0.00883
                  y   0.18569 -0.11307  0.09182 -0.03235  0.15197 -0.17355
                  z  -0.04231 -0.00834  0.15348  0.08978  0.07203  0.08655
 21   h           x  -0.00971  0.00021  0.07766  0.07609 -0.09011 -0.05873
                  y   0.15502 -0.09943  0.08466  0.00453  0.10409 -0.11705
                  z   0.05421 -0.06864  0.22299  0.04784  0.18289 -0.09360
 22   h           x   0.16128 -0.12923 -0.31004 -0.20435  0.02857 -0.29466
                  y   0.01335 -0.10144 -0.08487 -0.13571 -0.35846 -0.15964
                  z  -0.02481 -0.09360 -0.10042 -0.10130 -0.14680 -0.01906
 23   h           x   0.20680 -0.15462 -0.08130 -0.05176  0.04162  0.00923
                  y  -0.01506 -0.01692 -0.03626 -0.02696 -0.14450 -0.02060
                  z  -0.02240 -0.14220 -0.21925 -0.23109 -0.29896 -0.22193
 24   h           x  -0.03983  0.04367  0.01574 -0.08379 -0.08376  0.03895
                  y  -0.09813  0.09224 -0.00070 -0.01500 -0.00903  0.01971
                  z   0.00369 -0.00275 -0.26459  0.23178  0.32579 -0.07662
 25   h           x   0.07391 -0.02438  0.15203  0.06378  0.02031 -0.02021
                  y   0.40349  0.26044  0.00999 -0.03694  0.14080  0.04791
                  z  -0.21325 -0.22709  0.17831  0.09182  0.06801 -0.05640
 26   h           x  -0.05368  0.01481 -0.06518  0.00561 -0.13030 -0.00342
                  y  -0.18575 -0.36716 -0.06810 -0.07753  0.06304  0.09891
                  z   0.14253  0.22560  0.14073  0.09680  0.05978 -0.08443
 27   h           x   0.08360 -0.03911  0.20125  0.07625  0.04668 -0.02004
                  y   0.27281  0.34992  0.00452 -0.02456  0.08654  0.07974
                  z  -0.18820 -0.22609  0.02532  0.04308 -0.00060 -0.06824

reduced mass(g/mol)     6.433    5.642    7.763   11.455    6.329    3.477


       mode              13       14       15       16       17       18

     frequency         134.68   149.87   201.23   214.12   283.13   310.78

     symmetry            a        a        a        a        a        a   

        IR               YES      YES      YES      YES      YES      YES
|dDIP/dQ|   (a.u.)     0.0002   0.0017   0.0008   0.0012   0.0009   0.0016
intensity (km/mol)       0.05     4.94     1.20     2.67     1.56     4.41
intensity (  %   )       0.01     0.92     0.22     0.50     0.29     0.82
 
       RAMAN             YES      YES      YES      YES      YES      YES
 
  1   cl          x   0.05868  0.00844 -0.09983  0.04474  0.03851  0.08958
                  y  -0.09050  0.00877  0.01927  0.05517 -0.06738  0.03886
                  z   0.02391  0.08506 -0.00336  0.12346 -0.07998 -0.03749
  2   o           x  -0.02031 -0.15602 -0.00826  0.05369 -0.00778 -0.00106
                  y  -0.05097  0.00541 -0.05691  0.11442  0.08545 -0.01621
                  z   0.03393 -0.09944  0.00690  0.00029 -0.02139 -0.00737
  3   o           x   0.00681 -0.10935  0.04208 -0.02519 -0.02049 -0.00799
                  y  -0.03358  0.27379  0.12123 -0.14785  0.11712 -0.05988
                  z  -0.03530  0.06181  0.02382 -0.02618  0.03206 -0.00862
  4   n           x  -0.01721  0.06176  0.12439 -0.04894 -0.01533  0.04639
                  y  -0.08385 -0.05537  0.07506  0.14373 -0.02969  0.03377
                  z   0.03269  0.08224  0.24919  0.12742 -0.07146  0.10334
  5   n           x  -0.06771  0.01890  0.01457 -0.07911 -0.00075 -0.03013
                  y   0.02698  0.04194 -0.08791 -0.11985 -0.12227  0.01567
                  z   0.00850  0.07794 -0.19962 -0.13119 -0.15457 -0.01147
  6   n           x   0.02486  0.05887  0.16341 -0.24144 -0.06166 -0.02943
                  y  -0.02172  0.03830  0.01099 -0.00698  0.03896 -0.02369
                  z  -0.06919  0.15090 -0.05030  0.13648  0.11912  0.03980
  7   n           x   0.00080 -0.07188  0.06751 -0.06718 -0.01974 -0.01588
                  y  -0.03486  0.10906  0.02358 -0.01396  0.07577 -0.03141
                  z  -0.02044  0.03427  0.00425  0.02327  0.04948  0.00000
  8   n           x   0.02098  0.08836 -0.05167  0.10695  0.00269  0.01357
                  y   0.13349  0.03209 -0.04534 -0.01413  0.08456 -0.05139
                  z  -0.04701 -0.07515 -0.01898 -0.08992  0.09461  0.10305
  9   c           x  -0.16858 -0.04720  0.00281 -0.05451  0.04051 -0.07060
                  y  -0.14649 -0.11055 -0.03226  0.09598  0.00302 -0.03070
                  z  -0.10462 -0.02159 -0.06231 -0.03402  0.00685  0.01909
 10   c           x   0.01536  0.03242 -0.02461 -0.02061  0.04313 -0.03737
                  y  -0.04950 -0.14282  0.01461  0.00921 -0.18400 -0.05733
                  z   0.07076 -0.00413  0.08928  0.03154 -0.09680 -0.08082
 11   c           x  -0.09282 -0.10813  0.07809  0.04143  0.08817 -0.08489
                  y   0.03592 -0.12725  0.04113  0.05382  0.01814 -0.00417
                  z   0.10573 -0.13278  0.05509  0.05967  0.05282  0.01005
 12   c           x  -0.01867  0.07155  0.07579 -0.12279 -0.02618  0.01268
                  y  -0.02024  0.03940 -0.00896 -0.00161 -0.04427  0.01501
                  z  -0.00615  0.13935  0.00432 -0.00492 -0.07596  0.04555
 13   c           x   0.01427  0.05833 -0.02131  0.05938 -0.00896 -0.00594
                  y   0.05070 -0.10039  0.00008 -0.11512 -0.04396  0.22336
                  z   0.05457 -0.08275 -0.02722 -0.07342  0.02115 -0.19576
 14   c           x   0.04892  0.02251 -0.04432  0.07309 -0.07172 -0.00895
                  y   0.11015 -0.05938 -0.01904 -0.08318 -0.01947  0.16553
                  z   0.00972 -0.10247 -0.01407 -0.10043  0.02513 -0.15443
 15   c           x   0.01299  0.09335 -0.05015  0.09173  0.03948  0.03890
                  y   0.11578 -0.02833 -0.02915 -0.06614  0.00858  0.11212
                  z  -0.00341 -0.09345 -0.03049 -0.09165  0.06295 -0.06099
 16   c           x   0.06620  0.00706 -0.05763  0.06227 -0.07500 -0.03376
                  y   0.14857  0.00994 -0.04154 -0.01928  0.06992 -0.16265
                  z  -0.04513 -0.09287 -0.00428 -0.11735  0.06330  0.12403
 17   c           x   0.04899  0.04161 -0.07090  0.08661 -0.02493  0.01277
                  y   0.10575  0.02352 -0.04114 -0.00782  0.09684 -0.15664
                  z  -0.03535 -0.05772 -0.01801 -0.08568  0.08909  0.17125
 18   h           x  -0.45217 -0.01777 -0.27379 -0.20117  0.03274 -0.14914
                  y  -0.10635 -0.02756  0.13682  0.18982 -0.04380  0.02802
                  z  -0.18104 -0.06846 -0.22316 -0.12349  0.03401 -0.03157
 19   h           x  -0.06939 -0.08992  0.09680  0.02366  0.06529 -0.06712
                  y  -0.33888 -0.21573 -0.29921  0.00084  0.07232 -0.15475
[...]
 23   h           x   0.15841 -0.01458 -0.00919  0.01120  0.00431  0.02358
                  y  -0.07259  0.00637  0.04172 -0.00893  0.00416  0.16184
                  z  -0.02731  0.00226 -0.12857  0.01749 -0.02031 -0.64397
 24   h           x  -0.05743  0.01574 -0.08390  0.00398 -0.00249  0.00569
                  y   0.92157 -0.18734  0.28993  0.04220  0.03772 -0.04858
                  z   0.11426 -0.00740 -0.10894  0.01929  0.00581  0.00132
 25   h           x   0.06286  0.29179  0.05600  0.04851 -0.25511  0.00552
                  y   0.04396  0.20405  0.02044  0.01742 -0.05705  0.00210
                  z   0.07394  0.34433  0.04683  0.02634 -0.11664  0.00379
 26   h           x  -0.06062 -0.39216 -0.03743  0.08372 -0.59951  0.00858
                  y   0.01846  0.10368  0.01036 -0.01784  0.06000 -0.00083
                  z   0.02282  0.10310  0.00959 -0.00248  0.03134 -0.00016
 27   h           x   0.02671  0.11174  0.07978  0.09505 -0.54539  0.00756
                  y   0.00441  0.02411 -0.00736 -0.01678  0.11931 -0.00148
                  z   0.01096  0.04944 -0.00562 -0.01873  0.12097 -0.00120

reduced mass(g/mol)     1.610    1.975    3.295    1.131    2.252    1.096


       mode              67       68       69       70       71       72

     frequency        1534.09  1600.71  1629.69  1660.96  1688.61  2976.43

     symmetry            a        a        a        a        a        a   

        IR               YES      YES      YES      YES      YES      YES
|dDIP/dQ|   (a.u.)     0.0030   0.0040   0.0051   0.0173   0.0115   0.0051
intensity (km/mol)      16.51    29.15    46.19   534.14   235.27    46.22
intensity (  %   )       3.09     5.46     8.65   100.00    44.05     8.65
 
       RAMAN             YES      YES      YES      YES      YES      YES
 
  1   cl          x  -0.00006  0.00769  0.00356 -0.00079 -0.00011 -0.00001
                  y   0.00005 -0.00092  0.00028  0.00002  0.00000  0.00000
                  z   0.00006 -0.00048  0.00075 -0.00006 -0.00002  0.00000
  2   o           x   0.00482  0.00808 -0.00032  0.16990 -0.04072  0.00007
                  y  -0.00675 -0.00791  0.00059 -0.13869  0.02532 -0.00006
                  z  -0.00011  0.00099 -0.00002  0.02822 -0.00748  0.00000
  3   o           x  -0.00230  0.00712  0.00005  0.20937 -0.06095  0.00006
                  y  -0.00112 -0.00040 -0.00016  0.01583 -0.00672  0.00003
                  z  -0.00127  0.00244  0.00013  0.08279 -0.02335  0.00008
  4   n           x  -0.03895 -0.01271  0.00804  0.04865  0.07303  0.00222
                  y   0.01877  0.00765 -0.00118  0.00494  0.02690  0.00066
                  z   0.01439  0.00035 -0.00426 -0.02214 -0.05343 -0.00182
  5   n           x   0.00119  0.00576 -0.00733  0.07857  0.16148  0.00044
                  y   0.01553  0.01122 -0.01199  0.11001  0.24300  0.00010
                  z  -0.00976 -0.00697  0.00723 -0.07112 -0.15283 -0.00025
  6   n           x  -0.01102  0.00171  0.00122  0.08315 -0.01840  0.00011
                  y   0.00732 -0.00159 -0.00419 -0.05753  0.08626 -0.00012
                  z  -0.00433 -0.00068  0.00091  0.01670 -0.01633  0.00012
  7   n           x  -0.00186 -0.02030 -0.00070 -0.50364  0.14802 -0.00025
                  y   0.01053  0.01106 -0.00051  0.15121 -0.01986  0.00008
                  z   0.00241 -0.00470  0.00016 -0.14532  0.03625 -0.00004
  8   n           x  -0.00186 -0.03351 -0.13683 -0.00342 -0.00433 -0.00032
                  y   0.00189 -0.10606 -0.03041  0.00225 -0.00072  0.00011
                  z   0.00287 -0.16356 -0.06024  0.00298 -0.00175  0.00001
  9   c           x  -0.05404 -0.00042  0.00060 -0.00799 -0.02216 -0.00103
                  y   0.05330  0.00289 -0.00025 -0.01605 -0.02693  0.00019
                  z   0.00369 -0.00112 -0.00025  0.01360  0.02251  0.00033
 10   c           x   0.00272 -0.02501  0.03722  0.00835  0.01797 -0.00791
                  y  -0.00865  0.01929  0.00067  0.00181  0.00631 -0.03782
                  z   0.00431  0.03335  0.00649  0.01195  0.00784 -0.06668
 11   c           x   0.00837 -0.00108  0.00066 -0.01183 -0.01773  0.00022
                  y   0.02178  0.00109 -0.00105 -0.00058  0.00353  0.00033
                  z  -0.01680 -0.00066  0.00054  0.00472  0.00268 -0.00021
 12   c           x   0.04041  0.00026  0.00563 -0.15771 -0.28234 -0.00149
                  y  -0.04131 -0.01892  0.01814 -0.11777 -0.33670  0.00034
                  z   0.01297  0.00885 -0.00859  0.07029  0.21827  0.00005
 13   c           x  -0.00117  0.11710 -0.25356 -0.00754 -0.01624  0.00041
                  y   0.00183 -0.21348 -0.01463  0.00773  0.00004 -0.00118
                  z  -0.00076 -0.30955 -0.05328  0.01366  0.00029 -0.00073
 14   c           x   0.00033  0.05434  0.29432  0.00161  0.00809  0.00033
                  y  -0.00150  0.14994  0.09381 -0.00686  0.00255  0.00011
                  z  -0.00216  0.23256  0.17516 -0.01157  0.00518  0.00031
 15   c           x   0.00689 -0.14399  0.29919  0.00947  0.01101  0.00083
                  y  -0.00087  0.09565 -0.02933 -0.00391 -0.00204  0.00094
                  z  -0.00063  0.12817 -0.01234 -0.00469 -0.00194  0.00137
 16   c           x  -0.00452  0.14676 -0.26328 -0.01427 -0.00751  0.00009
                  y   0.00230 -0.11256 -0.00579  0.00640  0.00037 -0.00005
                  z   0.00324 -0.15419 -0.03729  0.00815 -0.00037 -0.00013
 17   c           x   0.00297 -0.11254  0.07635  0.01010  0.00316  0.00005
                  y  -0.00415  0.18817  0.01407 -0.00647 -0.00007  0.00012
                  z  -0.00592  0.27105  0.02981 -0.00844  0.00021  0.00015
 18   h           x   0.52813  0.01859 -0.00864 -0.01465 -0.00953  0.00052
                  y  -0.29044 -0.02659  0.00421  0.09092  0.13808  0.00297
                  z   0.29276  0.02235 -0.00510 -0.05912 -0.08505 -0.00919
 19   h           x   0.20918  0.00545 -0.00567  0.01443  0.02837  0.01141
                  y  -0.45047 -0.03156  0.00700  0.07778  0.13995 -0.00105
                  z  -0.41862 -0.01534  0.00749  0.00038 -0.01784  0.00857
 20   h           x   0.03270  0.32199 -0.02497 -0.09223 -0.08296  0.01257
                  y   0.08764  0.02883 -0.03886  0.01708 -0.09030  0.57914
                  z  -0.06073  0.00932  0.03233 -0.01024  0.06867  0.79702
 21   h           x  -0.00954 -0.07707  0.06322  0.00277 -0.01660  0.05377
                  y  -0.02890 -0.02098  0.02831 -0.02613  0.00602 -0.13842
                  z  -0.04927 -0.00517  0.03469 -0.08843  0.05604  0.02089
 22   h           x  -0.06844  0.00676 -0.00564  0.07590  0.12346 -0.00033
                  y  -0.20806 -0.01683  0.01180 -0.10725 -0.18976  0.00019
                  z  -0.00334 -0.00182  0.00199 -0.01156 -0.03128  0.00526
 23   h           x  -0.00413  0.00945 -0.01018  0.09964  0.18772 -0.00117
                  y  -0.05146 -0.00742  0.00576 -0.06065 -0.10754 -0.00281
                  z   0.21707  0.01406 -0.00884  0.05934  0.12219 -0.00165
 24   h           x  -0.01356 -0.00259 -0.00068  0.00515  0.04392  0.00059
                  y   0.03740  0.03561  0.01887  0.63766 -0.64273 -0.00020
                  z  -0.01510  0.00798  0.00108  0.19905 -0.02918 -0.00043
 25   h           x   0.00553 -0.35219 -0.30470  0.04145 -0.00647 -0.00132
                  y   0.00187 -0.06542 -0.24160  0.00946 -0.00297  0.00145
                  z   0.00187 -0.12822 -0.40851  0.03117 -0.01268  0.00163
 26   h           x  -0.02018  0.30764 -0.46852 -0.00662 -0.01040 -0.00691
                  y   0.00313  0.04088  0.05725 -0.00154 -0.00056 -0.01109
                  z   0.00124  0.09499  0.03711 -0.00430 -0.00005 -0.01545
 27   h           x   0.00855 -0.35139  0.18016  0.02820  0.00387 -0.00023
                  y   0.00049 -0.02745 -0.09994 -0.00116 -0.00283  0.00020
                  z   0.00080 -0.08040 -0.13406  0.00178 -0.00196  0.00040

reduced mass(g/mol)     1.159    6.629    5.315    7.354    5.728    1.074


       mode              73       74       75       76       77       78

     frequency        2982.76  3034.32  3084.63  3094.97  3111.06  3147.86

     symmetry            a        a        a        a        a        a   

        IR               YES      YES      YES      YES      YES      YES
|dDIP/dQ|   (a.u.)     0.0049   0.0045   0.0037   0.0037   0.0015   0.0033
intensity (km/mol)      42.14    35.28    24.15    23.77     4.08    18.84
intensity (  %   )       7.89     6.61     4.52     4.45     0.76     3.53
 
       RAMAN             YES      YES      YES      YES      YES      YES
 
  1   cl          x   0.00000 -0.00001  0.00000  0.00001 -0.00001  0.00006
                  y   0.00000  0.00000  0.00000  0.00000  0.00000  0.00001
                  z   0.00000  0.00000  0.00000  0.00000  0.00000  0.00002
  2   o           x   0.00005  0.00003  0.00003  0.00001 -0.00012 -0.00001
                  y  -0.00008 -0.00007 -0.00007 -0.00002  0.00014  0.00000
                  z   0.00000 -0.00001  0.00000  0.00000 -0.00009 -0.00001
  3   o           x   0.00000 -0.00006  0.00000 -0.00001 -0.00020 -0.00003
                  y  -0.00005 -0.00004 -0.00005 -0.00003  0.00013 -0.00001
                  z   0.00001 -0.00004  0.00000 -0.00002  0.00018 -0.00002
  4   n           x   0.00062 -0.00025  0.00008 -0.00015  0.00003 -0.00014
                  y  -0.00247  0.00046 -0.00022 -0.00083  0.00067 -0.00008
                  z   0.00035  0.00003 -0.00046 -0.00006 -0.00003 -0.00003
  5   n           x   0.00015  0.00098  0.00014 -0.00047  0.00021  0.00000
                  y  -0.00010 -0.00256 -0.00016  0.00026  0.00006  0.00000
                  z  -0.00017  0.00070  0.00065 -0.00032  0.00002  0.00002
  6   n           x   0.00004 -0.00001 -0.00005  0.00002  0.00001  0.00000
                  y  -0.00024 -0.00039 -0.00016 -0.00007  0.00001 -0.00002
                  z  -0.00001  0.00015  0.00001  0.00007  0.00034 -0.00001
  7   n           x  -0.00004  0.00006 -0.00002  0.00001 -0.00008  0.00005
                  y   0.00018  0.00027  0.00013  0.00011 -0.00026  0.00003
                  z   0.00002  0.00011  0.00000  0.00003  0.00022  0.00003
  8   n           x  -0.00005 -0.00002 -0.00003 -0.00002  0.00000  0.00094
                  y   0.00003 -0.00001  0.00001  0.00001  0.00006  0.00008
                  z  -0.00001 -0.00002 -0.00001 -0.00002 -0.00002  0.00027
  9   c           x   0.02062 -0.00845  0.03934  0.05136  0.00060  0.00017
                  y  -0.04264  0.00242 -0.00326  0.00095 -0.00069  0.00027
                  z  -0.06019 -0.00514  0.02983  0.04999  0.00062  0.00055
 10   c           x   0.00051  0.00006  0.00031  0.00036 -0.03108  0.00003
                  y   0.00000 -0.00013 -0.00090 -0.00093  0.07823  0.00125
                  z  -0.00038 -0.00026 -0.00069 -0.00061 -0.01176  0.00134
 11   c           x   0.00183 -0.00199 -0.02663  0.01838 -0.00015  0.00003
                  y   0.00530 -0.02061 -0.05879  0.03897 -0.00018  0.00008
                  z   0.00633  0.07053 -0.03148  0.03361  0.00010  0.00012
 12   c           x  -0.00155  0.00127 -0.00033 -0.00069 -0.00046 -0.00002
                  y   0.00059  0.00190  0.00119  0.00021  0.00031 -0.00003
                  z   0.00001 -0.00129 -0.00047  0.00047 -0.00035 -0.00003
 13   c           x  -0.00001  0.00001  0.00006  0.00010 -0.00083  0.00346
                  y  -0.00003 -0.00002  0.00002  0.00004  0.00033 -0.00092
                  z   0.00002  0.00001  0.00006  0.00006  0.00030 -0.00096
 14   c           x  -0.00006  0.00003 -0.00005 -0.00003  0.00066 -0.00017
                  y   0.00000  0.00001  0.00001  0.00000 -0.00024 -0.00057
                  z  -0.00003  0.00002 -0.00005 -0.00009  0.00006 -0.00086
 15   c           x   0.00008  0.00001 -0.00002 -0.00008  0.00019  0.00997
                  y   0.00023 -0.00005  0.00000 -0.00015 -0.00031  0.04752
                  z   0.00029 -0.00005 -0.00003 -0.00026 -0.00057  0.07159
 16   c           x   0.00003 -0.00003 -0.00001  0.00000 -0.00033  0.00038
                  y   0.00000 -0.00001 -0.00001 -0.00002  0.00007  0.00070
                  z   0.00001 -0.00002 -0.00001 -0.00002  0.00003  0.00108
 17   c           x  -0.00001  0.00005  0.00001 -0.00003  0.00015 -0.00109
                  y   0.00001  0.00001  0.00000  0.00000 -0.00007 -0.00093
                  z   0.00003  0.00001  0.00001  0.00002 -0.00011 -0.00150
 18   h           x  -0.11635 -0.00019  0.01135  0.03320 -0.00019  0.00047
                  y   0.52619 -0.01025 -0.01250 -0.08815 -0.00088 -0.00314
                  z   0.81801 -0.01901 -0.01485 -0.13120  0.00084 -0.00456
 19   h           x  -0.11874  0.09953 -0.46670 -0.63402 -0.00711 -0.00240
                  y   0.00433 -0.01392  0.05449  0.07615  0.00107  0.00036
                  z  -0.11392  0.07556 -0.34104 -0.46356 -0.00525 -0.00155
 20   h           x  -0.00360 -0.00006 -0.00002  0.00049 -0.00840 -0.00404
                  y  -0.00105  0.00245  0.00615  0.00693 -0.06688 -0.01179
                  z   0.01177  0.00326  0.00872  0.00766 -0.10682 -0.01683
 21   h           x  -0.00072 -0.00033 -0.00246 -0.00250  0.39434  0.00007
                  y   0.00073  0.00051  0.00440  0.00399 -0.87459 -0.00246
                  z   0.00237 -0.00020 -0.00123 -0.00119  0.23718 -0.00011
 22   h           x  -0.00668 -0.10777  0.01087 -0.02369 -0.00006  0.00000
                  y   0.00229 -0.00717 -0.01276  0.00899 -0.00005  0.00004
                  z  -0.05811 -0.93743  0.15345 -0.25478 -0.00180 -0.00138
 23   h           x  -0.02069  0.10616  0.29219 -0.19262  0.00109 -0.00048
                  y  -0.05561  0.25615  0.70332 -0.46750  0.00187 -0.00111
                  z  -0.01621  0.10423  0.22537 -0.14750  0.00049 -0.00031
 24   h           x   0.00048  0.00072  0.00099  0.00016 -0.00055 -0.00005
                  y  -0.00014  0.00072  0.00003 -0.00013 -0.00001 -0.00001
                  z  -0.00038 -0.00012  0.00005  0.00008  0.00018  0.00006
 25   h           x   0.00085 -0.00019  0.00044 -0.00003 -0.00493 -0.00322
                  y   0.00009  0.00011 -0.00009 -0.00008  0.00239  0.00281
                  z  -0.00014  0.00027 -0.00004  0.00025  0.00237  0.00395
 26   h           x  -0.00101  0.00013  0.00011  0.00071  0.00117 -0.15149
                  y  -0.00317  0.00034  0.00018  0.00222  0.00271 -0.54188
                  z  -0.00391  0.00043  0.00041  0.00343  0.00425 -0.82169
 27   h           x   0.00004  0.00002  0.00005  0.00000 -0.00035 -0.00422
                  y   0.00007  0.00011  0.00007 -0.00001 -0.00057 -0.00746
                  z   0.00015  0.00021  0.00018  0.00009 -0.00113 -0.01176

reduced mass(g/mol)     1.073    1.069    1.092    1.097    1.088    1.091


       mode              79       80       81

     frequency        3198.71  3216.04  3570.49

     symmetry            a        a        a   

        IR               YES      YES      YES
|dDIP/dQ|   (a.u.)     0.0004   0.0008   0.0066
intensity (km/mol)       0.25     1.27    77.73
intensity (  %   )       0.05     0.24    14.55
 
       RAMAN             YES      YES      YES
 
  1   cl          x   0.00006  0.00015  0.00001
                  y   0.00001  0.00001  0.00000
                  z   0.00002  0.00003  0.00000
  2   o           x   0.00007 -0.00005  0.00007
                  y  -0.00001  0.00002  0.00023
                  z   0.00000  0.00000 -0.00005
  3   o           x  -0.00018  0.00006  0.00091
                  y   0.00014 -0.00006  0.00050
                  z   0.00002 -0.00001  0.00040
  4   n           x  -0.00005 -0.00002  0.00027
                  y  -0.00003  0.00000 -0.00035
                  z  -0.00019  0.00008  0.00014
  5   n           x  -0.00005  0.00000 -0.00001
                  y  -0.00001 -0.00001 -0.00023
                  z   0.00001  0.00001 -0.00009
  6   n           x   0.00000  0.00000 -0.07212
                  y   0.00007 -0.00002 -0.00567
                  z   0.00003 -0.00001 -0.00606
  7   n           x  -0.00026  0.00014 -0.00077
                  y  -0.00006  0.00001 -0.00059
                  z  -0.00007  0.00003  0.00039
  8   n           x   0.00017  0.00037  0.00002
                  y   0.00008  0.00026  0.00000
                  z   0.00014  0.00044  0.00000
  9   c           x  -0.00001 -0.00001  0.00000
                  y   0.00006  0.00000 -0.00001
                  z   0.00005 -0.00002 -0.00002
 10   c           x  -0.00033  0.00017  0.00000
                  y   0.00049 -0.00010  0.00007
                  z   0.00016 -0.00009  0.00002
 11   c           x   0.00002  0.00000 -0.00001
                  y   0.00002  0.00001  0.00007
                  z   0.00002 -0.00003 -0.00006
 12   c           x   0.00017 -0.00001  0.00007
                  y  -0.00004  0.00001 -0.00026
                  z   0.00000 -0.00001  0.00123
 13   c           x  -0.00081  0.00056 -0.00002
                  y  -0.00118  0.00094 -0.00002
                  z  -0.00187  0.00149  0.00000
 14   c           x  -0.05748  0.02928  0.00001
                  y   0.03255 -0.01403  0.00000
                  z   0.04312 -0.01810  0.00001
 15   c           x   0.00063 -0.00012 -0.00001
                  y   0.00036  0.00071  0.00001
                  z   0.00063  0.00103  0.00001
 16   c           x  -0.00586 -0.02148  0.00001
                  y  -0.01844 -0.04207 -0.00001
                  z  -0.02840 -0.06566 -0.00001
 17   c           x  -0.00093 -0.00323 -0.00003
                  y   0.00017  0.00108  0.00000
                  z   0.00016  0.00127 -0.00001
 18   h           x   0.00003  0.00001  0.00015
                  y  -0.00037  0.00004 -0.00032
                  z  -0.00059  0.00010 -0.00022
 19   h           x   0.00014  0.00005  0.00060
                  y   0.00025 -0.00011 -0.00024
                  z   0.00025 -0.00007  0.00025
 20   h           x   0.00104 -0.00092  0.00004
                  y   0.00041 -0.00078 -0.00035
                  z   0.00116 -0.00137 -0.00034
 21   h           x   0.00324 -0.00105  0.00021
                  y  -0.00502  0.00107 -0.00039
                  z   0.00176 -0.00049  0.00021
 22   h           x   0.00000  0.00002  0.00032
                  y   0.00001 -0.00001 -0.00005
                  z  -0.00025  0.00033  0.00053
 23   h           x  -0.00015 -0.00001  0.00004
                  y  -0.00023 -0.00008 -0.00097
                  z  -0.00007 -0.00001 -0.00019
 24   h           x   0.00019 -0.00018  0.99182
                  y   0.00013 -0.00006  0.08735
                  z  -0.00001  0.00001  0.05816
 25   h           x   0.67011 -0.30062 -0.00029
                  y  -0.37179  0.16429  0.00009
                  z  -0.48969  0.21593 -0.00001
 26   h           x  -0.00224 -0.00148 -0.00002
                  y  -0.00607 -0.00589 -0.00002
                  z  -0.00936 -0.00887 -0.00001
 27   h           x   0.09985  0.23043  0.00001
                  y   0.21313  0.47558  0.00004
                  z   0.33159  0.74072  0.00006

reduced mass(g/mol)     1.090    1.095    1.077
 

         **************************************************************
         *                                                            *
         *  zero point VIBRATIONAL energy  :      0.2016209  Hartree  *
         *    SCF-energy                   :  -1233.1169699           *
         *    SCF + E(vib0)                :  -1232.9153490           *
         *                                                            *
         **************************************************************




 time elapsed for vibrational analysis     0.25 sec


    ------------------------------------------------------------------------
         total  cpu-time :   1 days 10 hours 31 minutes and 24 seconds
         total wall-time :   1 days 10 hours 31 minutes and 54 seconds
    ------------------------------------------------------------------------


   ****  force : all done  ****


    2017-12-22 23:32:44.336 

