
 Entering Gaussian System

 Gaussian 94:

 This file is not fully up to G94 outfile specs, but it should be
 compatible enough for Jmol 11 to be able to animate the vibrations.
 Created by aoforce2g94 v1.41

 All possible zero-frequencies from aoforce output removed.
 Displacement scaling factor: 1.000000


                   Standard orientation:
 ----------------------------------------------------------
 Center     Atomic              Coordinates (Angstroms)
 Number     Number             X           Y           Z
 ----------------------------------------------------------
    1         17          -5.129531   -0.363353   -0.503688 
    2          8           3.957519   -2.558202    0.097451 
    3          8           1.965777   -1.908642   -0.486604 
    4          7           1.395519    0.905632    0.123099 
    5          7           3.445505    1.588623   -0.598906 
    6          7           3.372221   -0.462412    0.500592 
    7          7           3.073990   -1.734482   -0.020344 
    8          7          -3.198484    0.520933    1.041950 
    9          6           1.178297    2.314109   -0.238242 
   10          6           0.570933    0.311551    1.161631 
   11          6           2.505943    2.666689   -0.950817 
   12          6           2.743809    0.692322   -0.026214 
   13          6          -0.852324    0.118784    0.700116 
   14          6          -1.148341   -0.618660   -0.448804 
   15          6          -1.918208    0.666465    1.400022 
   16          6          -2.466304   -0.777892   -0.833673 
   17          6          -3.445950   -0.180559   -0.038934 
   18          1           1.028789    2.906396    0.672948 
   19          1           0.297081    2.429491   -0.866780 
   20          1           0.582580    0.941701    2.060562 
   21          1           1.001164   -0.649450    1.433844 
   22          1           2.387354    2.677874   -2.036933 
   23          1           2.901113    3.636942   -0.653618 
   24          1           4.378770   -0.366170    0.547338 
   25          1          -0.346794   -1.057574   -1.027143 
   26          1          -1.742707    1.255179    2.294393 
   27          1          -2.740403   -1.341981   -1.712419 
 ----------------------------------------------------------

     0 basis functions        0 primitive gaussians
     0 alpha electrons        0 beta electrons

 ----------------------------------------------------------

 Harmonic frequencies (cm**-1), IR intensities (KM/Mole),
 Raman scattering activities (A**4/AMU), Raman depolarization ratios,
 reduced masses (AMU), force constants (mDyne/A) and normal coordinates:
                     1                      2                      3
                     a                      a                      a
 Frequencies --    25.1200                41.0100                50.8700
 Red. masses --     6.4330                 5.6420                 7.7630
 Frc consts  --     0.0                    0.0                    0.0
 IR Inten    --     2.7200                 1.3800                 0.8300
 Raman Activ --
 Depolar     --
 Atom AN      X      Y      Z        X      Y      Z        X      Y      Z  
   1  17     0.02  -0.16   0.04    -0.02   0.12  -0.01     0.13   0.04  -0.17
   2   8    -0.19  -0.08   0.04     0.13   0.05   0.12    -0.06   0.00  -0.16
   3   8    -0.14   0.05   0.03     0.10  -0.06   0.09    -0.17  -0.02   0.20
   4   7     0.04   0.09  -0.01    -0.02  -0.07  -0.04    -0.02   0.05   0.15
   5   7     0.08  -0.05  -0.01    -0.06   0.01  -0.06    -0.12  -0.05  -0.21
   6   7    -0.05  -0.03   0.01     0.05   0.05   0.01     0.01   0.01  -0.10
   7   7    -0.13  -0.02   0.02     0.10   0.01   0.08    -0.08  -0.00  -0.01
   8   7    -0.02  -0.16   0.09    -0.00  -0.17   0.13     0.02  -0.05   0.03
   9   6     0.12   0.09  -0.03    -0.08  -0.08  -0.06    -0.05   0.03   0.10
  10   6     0.00   0.14  -0.01     0.01  -0.09  -0.03     0.03   0.05   0.18
  11   6     0.15   0.01  -0.02    -0.11  -0.05  -0.09    -0.15  -0.04  -0.12
  12   6     0.03   0.00  -0.01    -0.01  -0.01  -0.03    -0.05   0.00  -0.05
  13   6     0.01   0.11  -0.03    -0.00  -0.05  -0.01     0.04  -0.02   0.17
  14   6     0.05   0.25  -0.13    -0.02   0.14  -0.13     0.11  -0.01   0.14
  15   6    -0.02  -0.08   0.07     0.00  -0.21   0.12    -0.00  -0.05   0.12
  16   6     0.05   0.17  -0.12    -0.03   0.19  -0.13     0.14  -0.01   0.05
  17   6     0.02  -0.04   0.00    -0.02   0.03   0.00     0.09  -0.01  -0.01
  18   1     0.14   0.11  -0.05    -0.09  -0.07  -0.07     0.08   0.08   0.08
  19   1     0.14   0.13  -0.05    -0.10  -0.13  -0.04    -0.14  -0.01   0.21
  20   1    -0.03   0.19  -0.04     0.03  -0.11  -0.01    -0.00   0.09   0.15
  21   1    -0.01   0.16   0.05     0.00  -0.10  -0.07     0.08   0.08   0.22
  22   1     0.16   0.01  -0.02    -0.13  -0.10  -0.09    -0.31  -0.08  -0.10
  23   1     0.21  -0.02  -0.02    -0.15  -0.02  -0.14    -0.08  -0.04  -0.22
  24   1    -0.04  -0.10   0.00     0.04   0.09  -0.00     0.02  -0.00  -0.26
  25   1     0.07   0.40  -0.21    -0.02   0.26  -0.23     0.15   0.01   0.18
  26   1    -0.05  -0.19   0.14     0.01  -0.37   0.23    -0.07  -0.07   0.14
  27   1     0.08   0.27  -0.19    -0.04   0.35  -0.23     0.20   0.00   0.03
                     4                      5                      6
                     a                      a                      a
 Frequencies --    70.8100                84.8400               105.0900
 Red. masses --    11.4550                 6.3290                 3.4770
 Frc consts  --     0.0                    0.0                    0.0
 IR Inten    --     0.8300                 1.9000                 0.2900
 Raman Activ --
 Depolar     --
 Atom AN      X      Y      Z        X      Y      Z        X      Y      Z  
   1  17     0.07   0.05  -0.05    -0.01  -0.05  -0.03    -0.03  -0.07   0.05
   2   8    -0.22  -0.10   0.40     0.16   0.08  -0.22     0.05  -0.02   0.05
   3   8     0.15   0.19  -0.55     0.12   0.01  -0.15     0.05  -0.05   0.01
   4   7    -0.01   0.04   0.07    -0.01   0.00   0.10     0.01   0.02   0.09
   5   7    -0.06  -0.03  -0.12     0.00  -0.15   0.02    -0.05  -0.04  -0.11
   6   7    -0.07   0.01   0.02    -0.08  -0.05   0.24     0.04  -0.01  -0.04
   7   7    -0.04   0.03  -0.04     0.08   0.02  -0.06     0.05  -0.02   0.01
   8   7     0.03  -0.05   0.05    -0.08   0.03   0.02    -0.01   0.09  -0.08
   9   6    -0.03   0.03   0.05     0.02  -0.05  -0.09     0.07   0.07   0.25
  10   6     0.03  -0.01   0.07    -0.07   0.10   0.11    -0.01  -0.07   0.01
  11   6    -0.09  -0.05  -0.11     0.03  -0.18  -0.14    -0.08  -0.04  -0.04
  12   6    -0.03   0.01  -0.03    -0.02  -0.06   0.14    -0.01  -0.02  -0.03
  13   6     0.03  -0.05   0.09    -0.06   0.10   0.07    -0.01   0.03  -0.04
  14   6     0.05  -0.04   0.08    -0.01   0.11   0.05    -0.02   0.06  -0.06
  15   6     0.02  -0.06   0.08    -0.09   0.07   0.05    -0.01   0.08  -0.07
  16   6     0.06  -0.03   0.05     0.01   0.08   0.02    -0.02   0.08  -0.07
  17   6     0.05  -0.02   0.03    -0.03   0.03   0.01    -0.02   0.06  -0.05
  18   1     0.09   0.07   0.04     0.03   0.08  -0.18     0.37   0.01   0.34
  19   1    -0.09   0.03   0.14     0.02  -0.12  -0.11    -0.08   0.21   0.49
  20   1     0.03  -0.03   0.09    -0.08   0.15   0.07    -0.01  -0.17   0.09
  21   1     0.08   0.00   0.05    -0.09   0.10   0.18    -0.06  -0.12  -0.09
  22   1    -0.20  -0.14  -0.10     0.03  -0.36  -0.15    -0.29  -0.16  -0.02
  23   1    -0.05  -0.03  -0.23     0.04  -0.14  -0.30     0.01  -0.02  -0.22
  24   1    -0.08  -0.01   0.23    -0.08  -0.01   0.33     0.04   0.02  -0.08
  25   1     0.06  -0.04   0.09     0.02   0.14   0.07    -0.02   0.05  -0.06
  26   1     0.01  -0.08   0.10    -0.13   0.06   0.06    -0.00   0.10  -0.08
  27   1     0.08  -0.02   0.04     0.05   0.09  -0.00    -0.02   0.08  -0.07
                     7                      8                      9
                     a                      a                      a
 Frequencies --   134.6800               149.8700               201.2300
 Red. masses --     3.9150                 6.1360                 4.4430
 Frc consts  --     0.0                    0.0                    0.0
 IR Inten    --     0.0500                 4.9400                 1.2000
 Raman Activ --
 Depolar     --
 Atom AN      X      Y      Z        X      Y      Z        X      Y      Z  
   1  17     0.06  -0.09   0.02     0.01   0.01   0.09    -0.10   0.02  -0.00
   2   8    -0.02  -0.05   0.03    -0.16   0.01  -0.10    -0.01  -0.06   0.01
   3   8     0.01  -0.03  -0.04    -0.11   0.27   0.06     0.04   0.12   0.02
   4   7    -0.02  -0.08   0.03     0.06  -0.06   0.08     0.12   0.08   0.25
   5   7    -0.07   0.03   0.01     0.02   0.04   0.08     0.01  -0.09  -0.20
   6   7     0.02  -0.02  -0.07     0.06   0.04   0.15     0.16   0.01  -0.05
   7   7     0.00  -0.03  -0.02    -0.07   0.11   0.03     0.07   0.02   0.00
   8   7     0.02   0.13  -0.05     0.09   0.03  -0.08    -0.05  -0.05  -0.02
   9   6    -0.17  -0.15  -0.10    -0.05  -0.11  -0.02     0.00  -0.03  -0.06
  10   6     0.02  -0.05   0.07     0.03  -0.14  -0.00    -0.02   0.01   0.09
  11   6    -0.09   0.04   0.11    -0.11  -0.13  -0.13     0.08   0.04   0.06
  12   6    -0.02  -0.02  -0.01     0.07   0.04   0.14     0.08  -0.01   0.00
  13   6     0.01   0.05   0.05     0.06  -0.10  -0.08    -0.02   0.00  -0.03
  14   6     0.05   0.11   0.01     0.02  -0.06  -0.10    -0.04  -0.02  -0.01
  15   6     0.01   0.12  -0.00     0.09  -0.03  -0.09    -0.05  -0.03  -0.03
  16   6     0.07   0.15  -0.05     0.01   0.01  -0.09    -0.06  -0.04  -0.00
  17   6     0.05   0.11  -0.04     0.04   0.02  -0.06    -0.07  -0.04  -0.02
  18   1    -0.45  -0.11  -0.18    -0.02  -0.03  -0.07    -0.27   0.14  -0.22
  19   1    -0.07  -0.34  -0.28    -0.09  -0.22   0.02     0.10  -0.30  -0.25
  20   1     0.07  -0.06   0.08    -0.03  -0.21   0.05    -0.16  -0.03   0.12
  21   1    -0.03  -0.08   0.04     0.02  -0.16  -0.05    -0.04   0.01   0.11
  22   1     0.03   0.25   0.10    -0.15  -0.41  -0.13     0.12   0.38   0.06
  23   1    -0.17  -0.00   0.34    -0.21  -0.01  -0.38     0.14  -0.07   0.35
  24   1     0.02  -0.02  -0.09     0.07  -0.03   0.08     0.17   0.02  -0.18
  25   1     0.07   0.12   0.03    -0.01  -0.09  -0.12    -0.06  -0.04  -0.02
  26   1    -0.00   0.13  -0.01     0.14  -0.02  -0.10    -0.06  -0.03  -0.02
  27   1     0.08   0.18  -0.07    -0.03   0.03  -0.10    -0.04  -0.06   0.00
                    10                     11                     12
                     a                      a                      a
 Frequencies --   214.1200               283.1300               310.7800
 Red. masses --     6.1260                 4.1810                 4.9730
 Frc consts  --     0.0                    0.0                    0.0
 IR Inten    --     2.6700                 1.5600                 4.4100
 Raman Activ --
 Depolar     --
 Atom AN      X      Y      Z        X      Y      Z        X      Y      Z  
   1  17     0.04   0.06   0.12     0.04  -0.07  -0.08     0.09   0.04  -0.04
   2   8     0.05   0.11   0.00    -0.01   0.09  -0.02    -0.00  -0.02  -0.01
   3   8    -0.03  -0.15  -0.03    -0.02   0.12   0.03    -0.01  -0.06  -0.01
   4   7    -0.05   0.14   0.13    -0.02  -0.03  -0.07     0.05   0.03   0.10
   5   7    -0.08  -0.12  -0.13    -0.00  -0.12  -0.15    -0.03   0.02  -0.01
   6   7    -0.24  -0.01   0.14    -0.06   0.04   0.12    -0.03  -0.02   0.04
   7   7    -0.07  -0.01   0.02    -0.02   0.08   0.05    -0.02  -0.03   0.00
   8   7     0.11  -0.01  -0.09     0.00   0.08   0.09     0.01  -0.05   0.10
   9   6    -0.05   0.10  -0.03     0.04   0.00   0.01    -0.07  -0.03   0.02
  10   6    -0.02   0.01   0.03     0.04  -0.18  -0.10    -0.04  -0.06  -0.08
  11   6     0.04   0.05   0.06     0.09   0.02   0.05    -0.08  -0.00   0.01
  12   6    -0.12  -0.00  -0.00    -0.03  -0.04  -0.08     0.01   0.02   0.05
  13   6     0.06  -0.12  -0.07    -0.01  -0.04   0.02    -0.01   0.22  -0.20
  14   6     0.07  -0.08  -0.10    -0.07  -0.02   0.03    -0.01   0.17  -0.15
  15   6     0.09  -0.07  -0.09     0.04   0.01   0.06     0.04   0.11  -0.06
  16   6     0.06  -0.02  -0.12    -0.07   0.07   0.06    -0.03  -0.16   0.12
  17   6     0.09  -0.01  -0.09    -0.02   0.10   0.09     0.01  -0.16   0.17
  18   1    -0.20   0.19  -0.12     0.03  -0.04   0.03    -0.15   0.03  -0.03
  19   1     0.02   0.00  -0.16     0.07   0.07  -0.01    -0.07  -0.15  -0.01
  20   1    -0.18  -0.03   0.06     0.19  -0.40   0.05     0.01  -0.30   0.09
  21   1     0.10   0.06   0.03     0.01  -0.27  -0.38    -0.23  -0.21  -0.31
  22   1     0.07   0.33   0.06     0.09   0.30   0.06    -0.10  -0.01   0.01
  23   1     0.17  -0.07   0.30     0.19  -0.10   0.29    -0.11   0.01   0.00
  24   1    -0.25   0.00   0.28    -0.06   0.05   0.17    -0.03  -0.05   0.08
  25   1     0.07  -0.10  -0.10    -0.11  -0.06   0.01    -0.01   0.26  -0.23
  26   1     0.13  -0.06  -0.10     0.10  -0.02   0.07     0.10   0.11  -0.07
  27   1     0.04   0.01  -0.13    -0.14   0.09   0.07    -0.11  -0.30   0.23
                    13                     14                     15
                     a                      a                      a
 Frequencies --   317.7900               372.2800               401.1200
 Red. masses --     4.4650                 3.1810                 4.6550
 Frc consts  --     0.0                    0.0                    0.0
 IR Inten    --     9.3100                 3.8600                 9.7700
 Raman Activ --
 Depolar     --
 Atom AN      X      Y      Z        X      Y      Z        X      Y      Z  
   1  17     0.02   0.06   0.06     0.10  -0.03  -0.02     0.16   0.03   0.08
   2   8    -0.00  -0.01  -0.03     0.01  -0.07  -0.01     0.01  -0.04   0.01
   3   8     0.03   0.17   0.03     0.03   0.04   0.01     0.03   0.08   0.03
   4   7    -0.08  -0.16  -0.17    -0.03   0.01   0.01    -0.11   0.07   0.03
   5   7    -0.07  -0.11  -0.10    -0.05  -0.02   0.01    -0.03  -0.06   0.10
   6   7     0.04   0.01   0.08     0.05  -0.01  -0.01     0.07   0.00  -0.12
   7   7     0.04   0.04   0.04     0.04  -0.02   0.00     0.06   0.02  -0.01
   8   7    -0.01  -0.07  -0.06     0.02   0.06   0.11    -0.10  -0.02  -0.03
   9   6     0.00  -0.09   0.10    -0.02   0.01   0.02     0.02   0.10  -0.07
  10   6    -0.04   0.11  -0.00    -0.10   0.14   0.00    -0.14  -0.11  -0.05
  11   6    -0.03  -0.02   0.12    -0.03  -0.01   0.02     0.10  -0.04  -0.03
  12   6    -0.04  -0.11  -0.07    -0.03  -0.02   0.02    -0.12  -0.03   0.02
  13   6    -0.02   0.09  -0.02    -0.02  -0.10  -0.11    -0.15   0.02   0.02
  14   6     0.06   0.07  -0.02    -0.07  -0.10  -0.10    -0.04  -0.03   0.03
  15   6    -0.05   0.04  -0.03     0.07  -0.03  -0.04    -0.14   0.00   0.04
  16   6     0.08  -0.08  -0.03    -0.11   0.06   0.01     0.02  -0.03  -0.07
  17   6     0.04  -0.11  -0.04    -0.01   0.09   0.09     0.04  -0.00  -0.07
  18   1     0.10  -0.28   0.24    -0.00  -0.00   0.03     0.00   0.19  -0.13
  19   1    -0.04   0.11   0.19    -0.03   0.03   0.03     0.08   0.12  -0.15
  20   1    -0.01   0.35  -0.17    -0.36   0.43  -0.19    -0.02  -0.38   0.14
  21   1    -0.10   0.15   0.25     0.01   0.30   0.39    -0.18  -0.22  -0.38
  22   1    -0.06   0.24   0.12    -0.03  -0.01   0.02     0.16  -0.14  -0.04
  23   1     0.04  -0.11   0.33    -0.01  -0.01   0.02     0.15  -0.04  -0.11
  24   1     0.03   0.08   0.04     0.05   0.04  -0.09     0.07   0.14  -0.32
  25   1     0.12   0.16  -0.01    -0.14  -0.16  -0.15     0.04  -0.05   0.15
  26   1    -0.10   0.07  -0.05     0.22  -0.01  -0.09    -0.17  -0.03   0.07
  27   1     0.14  -0.12  -0.02    -0.27   0.14   0.01     0.02  -0.04  -0.06
                    16                     17                     18
                     a                      a                      a
 Frequencies --   427.6500               443.7100               469.0800
 Red. masses --     3.6390                 7.5690                 5.3900
 Frc consts  --     0.0                    0.0                    0.0
 IR Inten    --     0.9800                 4.6900                21.6500
 Raman Activ --
 Depolar     --
 Atom AN      X      Y      Z        X      Y      Z        X      Y      Z  
   1  17    -0.01  -0.02  -0.00     0.03   0.01  -0.00    -0.13  -0.00  -0.06
   2   8     0.01   0.01   0.01     0.04   0.40   0.14     0.02  -0.04   0.01
   3   8     0.00   0.02   0.00    -0.12  -0.05  -0.07     0.03   0.10   0.04
   4   7    -0.03   0.00   0.00     0.04  -0.14   0.08    -0.16   0.06   0.00
   5   7    -0.01  -0.02   0.03     0.09  -0.09   0.05    -0.10  -0.10   0.14
   6   7     0.01   0.00  -0.04    -0.02   0.04  -0.26     0.02  -0.01  -0.10
   7   7     0.01   0.01  -0.00    -0.14   0.17  -0.06     0.06   0.01   0.00
   8   7     0.03   0.22  -0.13    -0.02  -0.01   0.03     0.13  -0.03   0.04
   9   6     0.01   0.02  -0.01     0.09  -0.18   0.04    -0.04   0.11  -0.05
  10   6    -0.00   0.01   0.03    -0.05  -0.02   0.11     0.04  -0.03   0.06
  11   6     0.03  -0.02  -0.00     0.11  -0.16   0.04     0.06  -0.08   0.01
  12   6    -0.03  -0.02   0.00     0.01  -0.05  -0.00    -0.19  -0.08   0.00
  13   6     0.01  -0.06   0.02    -0.02  -0.02  -0.03     0.11  -0.07   0.04
  14   6     0.01   0.17  -0.13    -0.02   0.00  -0.05     0.09   0.06  -0.04
  15   6     0.01  -0.20   0.12    -0.01   0.05  -0.06     0.16   0.11  -0.08
  16   6    -0.02  -0.16   0.12    -0.03   0.01  -0.01     0.06   0.04   0.03
  17   6    -0.00   0.05  -0.01    -0.01  -0.05   0.05     0.02  -0.13   0.14
  18   1     0.01   0.02  -0.02     0.10  -0.16   0.03    -0.04   0.16  -0.08
  19   1     0.02   0.04  -0.03     0.10  -0.16   0.03     0.03   0.16  -0.12
  20   1    -0.05   0.06  -0.00    -0.16   0.16  -0.02     0.06  -0.12   0.12
  21   1     0.07   0.05   0.09    -0.09   0.03   0.35     0.14  -0.02  -0.07
  22   1     0.04  -0.04  -0.00     0.10  -0.18   0.04     0.12  -0.18   0.00
  23   1     0.04  -0.02  -0.02     0.05  -0.12   0.02     0.13  -0.08  -0.07
  24   1     0.01   0.04  -0.09    -0.01  -0.05  -0.35     0.01   0.20  -0.30
  25   1     0.02   0.40  -0.30    -0.03   0.03  -0.09     0.07   0.18  -0.16
  26   1     0.01  -0.45   0.29     0.03   0.14  -0.13     0.21   0.34  -0.24
  27   1    -0.05  -0.36   0.26    -0.06   0.07  -0.04     0.08   0.20  -0.07
                    19                     20                     21
                     a                      a                      a
 Frequencies --   523.7900               595.0600               643.5100
 Red. masses --     3.6200                 2.3800                 7.3940
 Frc consts  --     0.0                    0.0                    0.0
 IR Inten    --     4.3200                31.2100                 4.3800
 Raman Activ --
 Depolar     --
 Atom AN      X      Y      Z        X      Y      Z        X      Y      Z  
   1  17     0.06   0.03   0.01    -0.01  -0.00  -0.00    -0.05   0.01   0.01
   2   8    -0.01  -0.03  -0.02    -0.06   0.02  -0.01    -0.01  -0.02  -0.01
   3   8     0.01  -0.03  -0.00     0.00  -0.12  -0.06     0.01  -0.01   0.01
   4   7     0.01  -0.02  -0.02    -0.04  -0.04  -0.04    -0.02  -0.05  -0.00
   5   7     0.03   0.06  -0.04    -0.05  -0.03  -0.04     0.00   0.04  -0.02
   6   7    -0.00   0.02   0.06     0.12   0.10   0.13    -0.01   0.01  -0.01
   7   7    -0.00  -0.02   0.00    -0.05  -0.01  -0.01     0.01   0.01  -0.00
   8   7    -0.07   0.07  -0.06     0.02  -0.00   0.01    -0.30   0.12   0.16
   9   6     0.03   0.01  -0.02     0.02   0.01  -0.02     0.04  -0.01  -0.02
  10   6     0.02  -0.06   0.05    -0.03  -0.01  -0.01    -0.09  -0.07   0.02
  11   6     0.02   0.06  -0.04     0.02   0.02  -0.02     0.03   0.05  -0.04
  12   6     0.05   0.05  -0.01    -0.00   0.05   0.14     0.01   0.03  -0.00
  13   6    -0.05  -0.23   0.16    -0.00   0.00  -0.00    -0.01  -0.07  -0.12
  14   6    -0.05   0.08  -0.04     0.02  -0.00  -0.00     0.39  -0.11  -0.13
  15   6    -0.07   0.06  -0.05     0.02   0.01   0.01    -0.15  -0.10  -0.17
  16   6    -0.05   0.01  -0.03     0.02  -0.00   0.00     0.26   0.11   0.19
  17   6    -0.05  -0.22   0.12     0.02   0.01   0.00     0.01   0.06   0.09
  18   1     0.07  -0.00  -0.00     0.11  -0.01   0.01     0.12  -0.02  -0.00
  19   1     0.02   0.03   0.01    -0.00   0.07   0.04     0.01   0.03   0.03
  20   1    -0.03   0.03  -0.01    -0.00  -0.03   0.00    -0.10  -0.11   0.05
  21   1     0.15   0.03   0.14    -0.04  -0.02  -0.02    -0.13  -0.10  -0.02
  22   1     0.02   0.09  -0.04     0.05   0.13  -0.02     0.06   0.09  -0.05
  23   1    -0.00   0.06  -0.01     0.06  -0.03   0.09     0.00   0.04   0.02
  24   1     0.00  -0.03   0.11     0.18   0.13  -0.89    -0.02  -0.02   0.21
  25   1    -0.02   0.45  -0.29     0.02  -0.00   0.01     0.37  -0.14  -0.12
  26   1    -0.07   0.41  -0.28     0.03  -0.00   0.01     0.08  -0.15  -0.19
  27   1    -0.02   0.33  -0.24     0.01  -0.01   0.00     0.11   0.11   0.24
                    22                     23                     24
                     a                      a                      a
 Frequencies --   676.9400               684.6600               707.3900
 Red. masses --     3.3130                 4.9710                 4.9200
 Frc consts  --     0.0                    0.0                    0.0
 IR Inten    --    39.3500                10.9900                16.1900
 Raman Activ --
 Depolar     --
 Atom AN      X      Y      Z        X      Y      Z        X      Y      Z  
   1  17    -0.04  -0.01  -0.02    -0.05  -0.00  -0.01     0.05   0.00   0.01
   2   8    -0.01  -0.03   0.00     0.04   0.06   0.04     0.02   0.02   0.05
   3   8     0.00  -0.01   0.03    -0.05   0.01  -0.00    -0.04   0.01   0.03
   4   7    -0.05  -0.11   0.02     0.04   0.10  -0.05    -0.06  -0.03  -0.10
   5   7    -0.06   0.06  -0.05     0.03  -0.10  -0.07    -0.12  -0.08  -0.06
   6   7    -0.02  -0.01  -0.06     0.08  -0.10  -0.06     0.05  -0.10  -0.10
   7   7     0.03   0.02  -0.04    -0.02   0.01  -0.03     0.02   0.02  -0.09
   8   7     0.12  -0.00   0.02     0.03   0.11  -0.02    -0.07  -0.07  -0.02
   9   6     0.11  -0.03  -0.05    -0.09   0.03   0.05    -0.02   0.06  -0.04
  10   6    -0.18  -0.07   0.07    -0.10   0.09  -0.29     0.17   0.02   0.05
  11   6     0.06   0.10  -0.10    -0.08  -0.09   0.09    -0.01  -0.00  -0.02
  12   6     0.01   0.08   0.11     0.11   0.03   0.20     0.03   0.11   0.34
  13   6    -0.08   0.01  -0.00    -0.09  -0.06   0.04     0.12   0.01   0.00
  14   6    -0.01  -0.00  -0.02     0.06  -0.06   0.04    -0.04   0.05   0.01
  15   6     0.07   0.07   0.10    -0.00  -0.00   0.14    -0.02  -0.05  -0.14
  16   6     0.02  -0.05  -0.07     0.10   0.01  -0.05    -0.07   0.04   0.08
  17   6     0.10   0.01   0.02     0.09  -0.09   0.08    -0.12   0.03  -0.06
  18   1     0.34  -0.04  -0.01    -0.25   0.03   0.03     0.16   0.01   0.02
  19   1     0.00   0.08   0.12    -0.04  -0.05  -0.05    -0.08   0.15   0.08
  20   1    -0.23  -0.03   0.04    -0.10   0.02  -0.24     0.27  -0.04   0.09
  21   1    -0.24  -0.08   0.13    -0.07   0.09  -0.32     0.22   0.00  -0.08
  22   1     0.18   0.28  -0.11    -0.17  -0.10   0.10     0.10   0.18  -0.03
  23   1     0.02   0.06   0.10    -0.01  -0.11   0.03     0.09  -0.09   0.16
  24   1    -0.05  -0.09   0.58     0.07  -0.25   0.21     0.02  -0.21   0.50
  25   1     0.08   0.02   0.08     0.18   0.20   0.01    -0.17  -0.08  -0.07
  26   1     0.10   0.04   0.11     0.05   0.12   0.05    -0.09  -0.07  -0.11
  27   1    -0.01  -0.07  -0.04     0.10   0.29  -0.22    -0.02  -0.08   0.14
                    25                     26                     27
                     a                      a                      a
 Frequencies --   754.8300               767.3000               794.5300
 Red. masses --     5.7530                 4.6910                 4.6630
 Frc consts  --     0.0                    0.0                    0.0
 IR Inten    --     6.6100                 2.4500                44.2300
 Raman Activ --
 Depolar     --
 Atom AN      X      Y      Z        X      Y      Z        X      Y      Z  
   1  17    -0.00  -0.00  -0.00     0.01   0.01  -0.00    -0.00  -0.00   0.00
   2   8    -0.18  -0.10   0.02    -0.04  -0.03   0.02     0.06  -0.00   0.13
   3   8     0.07  -0.13   0.11     0.01  -0.02   0.04    -0.10   0.06   0.08
   4   7    -0.05   0.02  -0.04     0.02  -0.02   0.04     0.09   0.04   0.07
   5   7     0.15  -0.06  -0.06    -0.06   0.01   0.04    -0.09   0.02   0.07
   6   7    -0.06   0.22   0.02    -0.05   0.05   0.01    -0.07  -0.06   0.12
   7   7     0.16   0.16  -0.28     0.05   0.04  -0.09     0.09  -0.02  -0.32
   8   7     0.00  -0.03   0.03     0.02   0.16  -0.15    -0.02  -0.03   0.04
   9   6    -0.09  -0.03   0.08     0.06  -0.07  -0.02     0.08  -0.08  -0.04
  10   6    -0.01  -0.01   0.02     0.03   0.05   0.00     0.03   0.04  -0.13
  11   6     0.06  -0.16   0.11     0.01  -0.00  -0.03    -0.05   0.05  -0.07
  12   6    -0.00   0.11   0.01    -0.06  -0.01  -0.01    -0.04  -0.09  -0.03
  13   6    -0.01  -0.02   0.01     0.06   0.18  -0.12    -0.02  -0.07   0.04
  14   6     0.00   0.02  -0.02    -0.02  -0.11   0.10     0.01   0.01   0.00
  15   6     0.00   0.03  -0.00     0.00  -0.16   0.03    -0.01   0.03   0.01
  16   6    -0.00  -0.03   0.00    -0.01   0.16  -0.04     0.01  -0.05   0.03
  17   6     0.01   0.04  -0.03    -0.07  -0.26   0.16     0.02   0.07  -0.05
  18   1    -0.31  -0.04   0.05     0.20  -0.06   0.00     0.33  -0.04  -0.02
  19   1     0.08   0.01  -0.16    -0.03  -0.05   0.12    -0.11  -0.12   0.23
  20   1    -0.03   0.05  -0.03     0.10  -0.04   0.06    -0.00   0.02  -0.11
  21   1     0.04   0.02   0.06    -0.11  -0.05  -0.11     0.08   0.07  -0.10
  22   1    -0.14  -0.32   0.13     0.12   0.11  -0.04     0.16   0.28  -0.09
  23   1     0.08  -0.11  -0.11    -0.04  -0.02   0.11    -0.14  -0.00   0.23
  24   1    -0.09   0.39   0.39    -0.05   0.16   0.02    -0.05   0.13  -0.42
  25   1     0.02   0.02  -0.00    -0.09  -0.30   0.15     0.04   0.22  -0.11
  26   1     0.01   0.05  -0.02    -0.03  -0.40   0.20    -0.00   0.19  -0.09
  27   1    -0.02  -0.09   0.05     0.04   0.38  -0.20     0.03   0.03  -0.03
                    28                     29                     30
                     a                      a                      a
 Frequencies --   817.9800               843.0100               851.9400
 Red. masses --     3.3840                 3.8730                 2.8490
 Frc consts  --     0.0                    0.0                    0.0
 IR Inten    --    12.8400                26.1800                39.6900
 Raman Activ --
 Depolar     --
 Atom AN      X      Y      Z        X      Y      Z        X      Y      Z  
   1  17    -0.01   0.00  -0.00     0.02  -0.00   0.01     0.00   0.00   0.00
   2   8     0.11   0.02   0.09     0.02   0.00   0.02     0.08  -0.05   0.00
   3   8    -0.10   0.08   0.02    -0.02   0.01   0.00    -0.01   0.07  -0.00
   4   7    -0.05  -0.06  -0.08    -0.02  -0.04   0.01    -0.05   0.05  -0.01
   5   7     0.09   0.01  -0.06     0.02   0.03  -0.03     0.22  -0.03  -0.03
   6   7    -0.00  -0.09   0.09     0.01  -0.01   0.03    -0.12   0.03  -0.05
   7   7     0.01  -0.08  -0.15    -0.00  -0.02  -0.03    -0.00  -0.09   0.04
   8   7    -0.01   0.04   0.01     0.13  -0.09  -0.11     0.03  -0.01  -0.02
   9   6    -0.07   0.13   0.02     0.02   0.02   0.02    -0.11  -0.08   0.01
  10   6    -0.02  -0.07   0.16    -0.21  -0.05  -0.07    -0.05  -0.00   0.02
  11   6     0.01   0.07   0.02     0.02   0.05   0.01    -0.01  -0.06  -0.04
  12   6     0.07   0.02  -0.01     0.02  -0.00  -0.03    -0.00   0.14   0.04
  13   6    -0.01   0.05  -0.03     0.03  -0.01  -0.01     0.00  -0.00  -0.00
  14   6     0.00  -0.02  -0.05    -0.01   0.07   0.17    -0.00   0.01   0.01
  15   6     0.00   0.01   0.02     0.05  -0.10  -0.12     0.01  -0.01  -0.02
  16   6    -0.00   0.02  -0.08     0.02   0.10   0.25     0.00   0.02   0.03
  17   6     0.03  -0.06   0.06    -0.12   0.03  -0.06    -0.02  -0.00  -0.00
  18   1    -0.37   0.06   0.01    -0.23  -0.00  -0.01     0.33  -0.04   0.06
  19   1     0.12   0.12  -0.25     0.16  -0.03  -0.18    -0.34   0.07   0.34
  20   1    -0.00   0.00   0.10    -0.32  -0.02  -0.09    -0.05  -0.04   0.05
  21   1    -0.04  -0.07   0.21    -0.30  -0.06   0.03    -0.03  -0.01  -0.04
  22   1    -0.24  -0.20   0.05    -0.16  -0.14   0.03     0.24   0.24  -0.06
  23   1     0.14   0.12  -0.32     0.07   0.10  -0.22    -0.22  -0.10   0.36
  24   1     0.03  -0.13  -0.30     0.02  -0.05  -0.01    -0.11   0.11  -0.40
  25   1    -0.00  -0.26   0.13    -0.09   0.27  -0.08    -0.02  -0.02   0.01
  26   1     0.00  -0.17   0.14     0.03  -0.00  -0.18     0.01  -0.02  -0.01
  27   1    -0.08  -0.17   0.07     0.28   0.34   0.02     0.03  -0.01   0.05
                    31                     32                     33
                     a                      a                      a
 Frequencies --   865.1700               879.8700               936.8000
 Red. masses --     1.5670                 2.9060                 1.9340
 Frc consts  --     0.0                    0.0                    0.0
 IR Inten    --    17.9000                19.1800                19.1100
 Raman Activ --
 Depolar     --
 Atom AN      X      Y      Z        X      Y      Z        X      Y      Z  
   1  17     0.00   0.00  -0.00     0.00  -0.00   0.00    -0.00   0.00   0.00
   2   8    -0.02   0.01  -0.00    -0.07   0.06   0.01    -0.02   0.00  -0.01
   3   8     0.00  -0.01   0.00    -0.01  -0.07   0.00     0.02  -0.01   0.01
   4   7     0.02   0.02   0.01    -0.04   0.03  -0.01     0.05  -0.02   0.02
   5   7    -0.01  -0.00   0.01     0.09  -0.02   0.06    -0.00  -0.03   0.03
   6   7     0.02  -0.01   0.01     0.16  -0.07   0.07    -0.02  -0.02  -0.01
   7   7     0.00   0.02  -0.00     0.00   0.08  -0.05     0.01   0.03   0.01
   8   7     0.02  -0.01  -0.02     0.02  -0.01  -0.01    -0.02   0.00   0.01
   9   6     0.00   0.00  -0.01    -0.13   0.11  -0.06    -0.12   0.05   0.04
  10   6    -0.03  -0.03  -0.07    -0.05   0.01   0.09     0.05  -0.13  -0.08
  11   6    -0.01  -0.00  -0.01    -0.08  -0.02  -0.04     0.08   0.06  -0.08
  12   6     0.00  -0.02  -0.01     0.07  -0.12  -0.12    -0.03  -0.01   0.02
  13   6    -0.01  -0.07   0.04    -0.00   0.02  -0.01     0.01   0.02  -0.03
  14   6     0.00   0.10  -0.01    -0.00  -0.02   0.00    -0.01   0.02   0.04
  15   6     0.00   0.01  -0.02     0.01  -0.01  -0.02    -0.01   0.08  -0.02
  16   6     0.02   0.13  -0.02    -0.01  -0.01   0.02     0.01  -0.03   0.02
  17   6    -0.02  -0.06   0.03    -0.01   0.01   0.00     0.00  -0.01  -0.01
  18   1     0.05   0.02  -0.01     0.29   0.17  -0.02    -0.11   0.00   0.08
  19   1    -0.04  -0.01   0.04    -0.33   0.24   0.24    -0.22  -0.09   0.15
  20   1    -0.14   0.06  -0.13    -0.02  -0.10   0.16    -0.21   0.27  -0.35
  21   1     0.07   0.06   0.07    -0.10  -0.05  -0.04     0.17   0.07   0.43
  22   1     0.04   0.05  -0.01     0.25   0.24  -0.06     0.13   0.06  -0.09
  23   1    -0.03  -0.02   0.06    -0.12  -0.12   0.32     0.20   0.00  -0.05
  24   1     0.02  -0.02   0.04     0.16  -0.23   0.31    -0.02   0.02  -0.05
  25   1    -0.04  -0.40   0.31    -0.01   0.06  -0.06     0.02   0.05   0.06
  26   1    -0.01  -0.02   0.00     0.02  -0.04  -0.00    -0.06  -0.35   0.28
  27   1     0.03  -0.64   0.46    -0.01   0.13  -0.07     0.09   0.21  -0.16
                    34                     35                     36
                     a                      a                      a
 Frequencies --   956.4800               977.6100               982.5500
 Red. masses --     1.8180                 3.4830                 2.3480
 Frc consts  --     0.0                    0.0                    0.0
 IR Inten    --    16.8400                68.9000                45.2200
 Raman Activ --
 Depolar     --
 Atom AN      X      Y      Z        X      Y      Z        X      Y      Z  
   1  17     0.00  -0.00   0.00    -0.00  -0.00   0.00     0.00   0.00  -0.00
   2   8    -0.02   0.01  -0.00     0.10  -0.03   0.02     0.03   0.00   0.01
   3   8     0.02  -0.01   0.01    -0.12   0.02  -0.05    -0.06  -0.00  -0.02
   4   7     0.01  -0.03   0.00     0.00   0.00   0.03    -0.04   0.02   0.00
   5   7     0.01  -0.03   0.02    -0.12   0.12  -0.01    -0.05   0.04   0.00
   6   7    -0.00  -0.03  -0.00     0.08   0.15   0.02     0.07   0.04   0.02
   7   7     0.01   0.03   0.00    -0.04  -0.13  -0.02    -0.02  -0.04  -0.01
   8   7    -0.00   0.01  -0.01    -0.02   0.02   0.01     0.02  -0.02  -0.00
   9   6    -0.11  -0.02   0.06    -0.07   0.05  -0.00    -0.09  -0.11   0.09
  10   6     0.01   0.03  -0.00     0.03  -0.09  -0.03    -0.03   0.13   0.00
  11   6     0.09   0.10  -0.08     0.10  -0.21   0.04     0.15   0.02  -0.06
  12   6    -0.02  -0.01   0.01     0.03   0.03  -0.06     0.00  -0.01  -0.04
  13   6     0.01   0.04  -0.02     0.01   0.05  -0.05    -0.02  -0.06   0.06
  14   6     0.00  -0.01  -0.01    -0.01   0.01   0.03     0.01  -0.03  -0.01
  15   6    -0.01  -0.12   0.08    -0.01  -0.07   0.06     0.01   0.08  -0.07
  16   6    -0.00   0.02  -0.02     0.01  -0.00  -0.01    -0.01   0.02  -0.01
  17   6    -0.00   0.02  -0.01     0.01   0.00  -0.01    -0.00  -0.01   0.02
  18   1    -0.17  -0.11   0.11     0.11   0.12  -0.02    -0.15  -0.17   0.12
  19   1    -0.18  -0.16   0.13    -0.07   0.17   0.03    -0.14  -0.18   0.13
  20   1     0.09  -0.02   0.03    -0.17   0.12  -0.17     0.18  -0.16   0.20
  21   1    -0.10  -0.03  -0.06     0.08   0.02   0.29    -0.07   0.00  -0.38
  22   1     0.07   0.01  -0.08     0.27  -0.04   0.02     0.16  -0.06  -0.06
  23   1     0.21   0.08  -0.16     0.16  -0.27   0.16     0.25   0.01  -0.14
  24   1    -0.00  -0.01  -0.05     0.07   0.05   0.39     0.07  -0.03   0.21
  25   1    -0.00  -0.01  -0.02     0.00   0.01   0.05    -0.00   0.08  -0.11
  26   1     0.05   0.67  -0.45     0.02   0.39  -0.25    -0.01  -0.46   0.29
  27   1    -0.03  -0.15   0.10     0.06  -0.01  -0.02    -0.07  -0.08   0.08
                    37                     38                     39
                     a                      a                      a
 Frequencies --  1016.2800              1042.6000              1056.4500
 Red. masses --     1.3930                 3.2690                 4.1540
 Frc consts  --     0.0                    0.0                    0.0
 IR Inten    --     1.4000                19.1400                13.4400
 Raman Activ --
 Depolar     --
 Atom AN      X      Y      Z        X      Y      Z        X      Y      Z  
   1  17    -0.00   0.00  -0.00     0.01   0.00   0.00     0.00   0.00   0.00
   2   8    -0.00  -0.00  -0.00    -0.01  -0.00  -0.00     0.07  -0.03   0.01
   3   8     0.01   0.00   0.00     0.02   0.00   0.01    -0.14  -0.01  -0.06
   4   7     0.01  -0.02   0.00     0.04  -0.01  -0.01    -0.03  -0.00   0.03
   5   7     0.00  -0.00   0.00    -0.04   0.03  -0.00     0.13  -0.21   0.07
   6   7    -0.01   0.00  -0.01    -0.03  -0.02  -0.00     0.12   0.22  -0.02
   7   7     0.00   0.00   0.00     0.00   0.01   0.00    -0.03  -0.10  -0.01
   8   7    -0.01   0.00   0.01     0.10  -0.11  -0.15     0.01  -0.02  -0.03
   9   6     0.00   0.03  -0.01    -0.02   0.04  -0.01     0.06  -0.01  -0.02
  10   6     0.01  -0.02   0.00     0.03  -0.02   0.01     0.04  -0.02  -0.03
  11   6    -0.01  -0.01   0.00     0.01  -0.05   0.01    -0.11   0.20  -0.04
  12   6     0.00  -0.00   0.01     0.02   0.01   0.00    -0.09  -0.07   0.04
  13   6     0.01   0.02  -0.02    -0.06   0.01  -0.00     0.00   0.02  -0.02
  14   6    -0.02  -0.11   0.09     0.12  -0.13  -0.15     0.02  -0.03  -0.03
  15   6     0.01   0.01  -0.02    -0.09   0.11   0.15    -0.02   0.03   0.05
  16   6     0.01   0.08  -0.07    -0.03   0.11   0.15    -0.00   0.02   0.03
  17   6     0.00  -0.01   0.00    -0.03   0.01   0.00    -0.01  -0.00  -0.01
  18   1     0.02   0.03  -0.01     0.01   0.04  -0.01    -0.02  -0.04  -0.01
  19   1    -0.00   0.03  -0.01    -0.03   0.02   0.01     0.01  -0.12   0.02
  20   1    -0.02   0.03  -0.03     0.11   0.06  -0.05    -0.03   0.05  -0.08
  21   1    -0.03  -0.02   0.07    -0.01  -0.01   0.08     0.16   0.05   0.06
  22   1    -0.00   0.01   0.00     0.05   0.00   0.01    -0.20   0.03  -0.02
  23   1    -0.01  -0.01   0.02     0.07  -0.08   0.04    -0.23   0.26  -0.11
  24   1    -0.01   0.01  -0.02    -0.03  -0.02  -0.10     0.07   0.38   0.57
  25   1     0.06   0.69  -0.41    -0.03  -0.12  -0.37    -0.02  -0.02  -0.10
  26   1     0.02  -0.07   0.03    -0.45   0.16   0.20    -0.12   0.07   0.04
  27   1    -0.00  -0.46   0.28    -0.49   0.14   0.27    -0.08   0.03   0.05
                    40                     41                     42
                     a                      a                      a
 Frequencies --  1106.1400              1111.0600              1122.5800
 Red. masses --     3.2140                 1.6760                 3.6480
 Frc consts  --     0.0                    0.0                    0.0
 IR Inten    --     4.6000                 2.5500               136.6300
 Raman Activ --
 Depolar     --
 Atom AN      X      Y      Z        X      Y      Z        X      Y      Z  
   1  17     0.00   0.00   0.00    -0.00  -0.00  -0.00     0.03   0.00   0.01
   2   8    -0.01   0.02   0.01     0.01  -0.01  -0.00     0.00  -0.01  -0.00
   3   8    -0.00  -0.02  -0.00    -0.01   0.00  -0.00    -0.00   0.00  -0.00
   4   7    -0.20   0.15  -0.00    -0.00  -0.03  -0.03     0.03  -0.04   0.00
   5   7     0.03   0.05  -0.02     0.02   0.02   0.06     0.00   0.00   0.01
   6   7     0.09  -0.12   0.05    -0.01   0.02  -0.01    -0.02   0.02  -0.01
   7   7     0.00   0.03  -0.00    -0.00  -0.00   0.00    -0.00  -0.00   0.00
   8   7    -0.01   0.00   0.00     0.00  -0.00  -0.00    -0.03   0.04   0.05
   9   6     0.07  -0.18   0.09     0.05   0.06   0.13    -0.01   0.04   0.00
  10   6     0.03  -0.09  -0.01    -0.00   0.01   0.01    -0.05   0.03  -0.01
  11   6     0.03  -0.01  -0.06    -0.06  -0.07  -0.14    -0.01  -0.01  -0.01
  12   6    -0.06   0.06  -0.04     0.00  -0.00   0.00     0.01  -0.01   0.00
  13   6     0.03   0.06  -0.06    -0.01  -0.00   0.01     0.04  -0.02   0.02
  14   6     0.02  -0.03   0.00    -0.01   0.01   0.00     0.09  -0.06  -0.09
  15   6    -0.00   0.03   0.08    -0.00  -0.01  -0.02     0.13   0.10   0.15
  16   6     0.01   0.01   0.00    -0.00  -0.00  -0.00     0.03  -0.04  -0.06
  17   6    -0.05  -0.01  -0.03     0.02   0.01   0.01    -0.38  -0.03  -0.08
  18   1    -0.11  -0.05  -0.02    -0.37   0.24  -0.07    -0.04   0.05  -0.01
  19   1     0.30  -0.01  -0.20     0.24  -0.32  -0.20    -0.01  -0.04   0.00
  20   1    -0.29   0.04  -0.09     0.11   0.02  -0.01     0.05  -0.02   0.03
  21   1     0.57   0.19   0.08    -0.10  -0.03  -0.00    -0.19  -0.05  -0.04
  22   1    -0.07   0.13  -0.04    -0.12   0.48  -0.12    -0.01   0.06  -0.01
  23   1    -0.20   0.05   0.08     0.17  -0.31   0.34     0.07  -0.07   0.04
  24   1     0.11  -0.27   0.04    -0.02   0.04   0.01    -0.02   0.04  -0.01
  25   1    -0.01   0.07  -0.12     0.00  -0.01   0.02     0.04  -0.11  -0.12
  26   1    -0.07   0.13   0.03     0.01  -0.03  -0.02     0.23   0.06   0.16
  27   1     0.11  -0.03  -0.01    -0.06   0.01   0.01     0.71  -0.18  -0.20
                    43                     44                     45
                     a                      a                      a
 Frequencies --  1164.5200              1212.2500              1219.6600
 Red. masses --     1.4220                 1.1480                 2.8120
 Frc consts  --     0.0                    0.0                    0.0
 IR Inten    --     7.6900                 6.5000                32.9300
 Raman Activ --
 Depolar     --
 Atom AN      X      Y      Z        X      Y      Z        X      Y      Z  
   1  17     0.01  -0.00  -0.00    -0.00   0.00   0.00    -0.00  -0.00  -0.00
   2   8     0.00  -0.00   0.00     0.00  -0.00   0.00    -0.00   0.00  -0.00
   3   8    -0.01  -0.00  -0.00    -0.01  -0.00  -0.00     0.01   0.00   0.00
   4   7    -0.00   0.01   0.00     0.02  -0.00   0.05     0.11   0.17  -0.17
   5   7    -0.00  -0.00  -0.00     0.02   0.01   0.03    -0.06  -0.03   0.05
   6   7     0.00  -0.00   0.00     0.00  -0.00  -0.00    -0.02   0.03  -0.02
   7   7     0.00   0.00   0.00     0.00   0.00   0.00    -0.00  -0.02   0.00
   8   7     0.04   0.00   0.01    -0.00   0.00   0.00     0.05   0.00   0.01
   9   6     0.00  -0.01   0.00    -0.03  -0.02  -0.06     0.03  -0.06  -0.03
  10   6     0.00  -0.01  -0.01     0.00   0.01  -0.01    -0.04  -0.07   0.15
  11   6     0.00   0.00   0.00    -0.01  -0.01  -0.04    -0.04   0.01   0.02
  12   6    -0.00   0.00  -0.00    -0.01   0.00   0.00     0.06  -0.04   0.02
  13   6    -0.01   0.01   0.01     0.01  -0.00  -0.00    -0.10  -0.00  -0.08
  14   6     0.11   0.01   0.03     0.00   0.00   0.00    -0.02  -0.00   0.01
  15   6     0.00  -0.02  -0.03    -0.00   0.00   0.00    -0.03  -0.00   0.00
  16   6    -0.08  -0.03  -0.05    -0.01  -0.00  -0.00     0.01   0.02   0.03
  17   6    -0.10   0.01  -0.00     0.00  -0.00  -0.00    -0.01  -0.00  -0.00
  18   1     0.01  -0.00  -0.00    -0.04  -0.48   0.24    -0.00  -0.15   0.04
  19   1     0.00  -0.01   0.00     0.08   0.53  -0.12    -0.19  -0.35   0.22
  20   1     0.01   0.02  -0.03    -0.08  -0.04   0.04    -0.22  -0.13   0.19
  21   1     0.02   0.01   0.02     0.02   0.01  -0.04     0.34   0.07   0.01
  22   1     0.01  -0.01   0.00    -0.42   0.24   0.01    -0.17   0.01   0.03
  23   1    -0.02   0.01  -0.00     0.33  -0.17   0.03     0.46  -0.18  -0.04
  24   1     0.00   0.00   0.00    -0.00   0.02   0.00    -0.03   0.12  -0.00
  25   1     0.60   0.27   0.49     0.00   0.00   0.00     0.09   0.09   0.10
  26   1     0.04  -0.02  -0.04    -0.03   0.00   0.01     0.13   0.01  -0.03
  27   1    -0.53   0.06   0.02    -0.03   0.00   0.00     0.25  -0.03  -0.02
                    46                     47                     48
                     a                      a                      a
 Frequencies --  1238.7100              1259.3000              1264.9500
 Red. masses --     2.4390                 1.3330                 2.2870
 Frc consts  --     0.0                    0.0                    0.0
 IR Inten    --    11.7000                28.9600                47.0000
 Raman Activ --
 Depolar     --
 Atom AN      X      Y      Z        X      Y      Z        X      Y      Z  
   1  17    -0.00  -0.00  -0.00     0.00   0.00   0.00    -0.00  -0.00  -0.00
   2   8     0.01  -0.01   0.00     0.02  -0.02   0.00    -0.01   0.01  -0.00
   3   8    -0.02  -0.01  -0.01    -0.03  -0.01  -0.01     0.04   0.01   0.02
   4   7    -0.02  -0.03   0.06    -0.05  -0.02   0.03    -0.08  -0.15   0.06
   5   7     0.02   0.00  -0.01     0.04   0.03   0.00     0.03   0.02  -0.00
   6   7     0.02  -0.02   0.01     0.03  -0.03   0.02    -0.03   0.03  -0.01
   7   7     0.01   0.02   0.00     0.01   0.03   0.01    -0.02  -0.03  -0.01
   8   7     0.08  -0.02  -0.02    -0.01  -0.01  -0.01     0.05   0.03   0.05
   9   6    -0.01   0.01  -0.00     0.02  -0.01  -0.06    -0.01   0.04  -0.00
  10   6     0.12   0.02   0.01     0.00  -0.01  -0.02     0.06   0.09  -0.03
  11   6     0.02  -0.01  -0.01     0.00  -0.00   0.06    -0.03   0.02   0.01
  12   6    -0.05   0.03  -0.01    -0.06   0.06  -0.02     0.06  -0.02  -0.01
  13   6    -0.27  -0.03  -0.08     0.00   0.01   0.02    -0.01  -0.06  -0.12
  14   6    -0.05  -0.01  -0.02    -0.00  -0.00  -0.01     0.02   0.02   0.04
  15   6    -0.02  -0.02  -0.03     0.02  -0.01  -0.01    -0.08   0.03   0.04
  16   6     0.05   0.03   0.05     0.01  -0.00  -0.01    -0.05   0.02   0.03
  17   6    -0.03   0.02   0.03    -0.00   0.01   0.01     0.02  -0.05  -0.07
  18   1    -0.01  -0.04   0.03     0.27   0.25  -0.19     0.09   0.22  -0.12
  19   1     0.07   0.18  -0.08    -0.23  -0.37   0.23    -0.04  -0.10   0.02
  20   1     0.53   0.17  -0.10     0.16   0.11  -0.11    -0.41  -0.31   0.27
  21   1     0.09   0.01   0.04    -0.06  -0.02   0.02     0.48   0.21  -0.25
  22   1    -0.01   0.03  -0.01    -0.51   0.06   0.11     0.04  -0.03   0.01
  23   1    -0.16   0.05   0.02     0.45  -0.14  -0.09     0.27  -0.08  -0.06
  24   1     0.02  -0.03   0.02     0.03  -0.09   0.01    -0.03  -0.08  -0.05
  25   1     0.18   0.12   0.20    -0.02  -0.01  -0.02     0.06   0.05   0.09
  26   1     0.39  -0.08  -0.09     0.01  -0.01  -0.01    -0.03   0.03   0.04
  27   1     0.45  -0.04  -0.02    -0.04   0.00   0.00     0.12   0.00  -0.00
                    49                     50                     51
                     a                      a                      a
 Frequencies --  1296.6900              1317.7000              1323.5600
 Red. masses --     4.3180                 1.5870                 2.0890
 Frc consts  --     0.0                    0.0                    0.0
 IR Inten    --    67.7600                45.9000               129.0100
 Raman Activ --
 Depolar     --
 Atom AN      X      Y      Z        X      Y      Z        X      Y      Z  
   1  17    -0.00  -0.00  -0.00    -0.00   0.00   0.00    -0.00  -0.00  -0.00
   2   8     0.04  -0.05   0.01    -0.02   0.02  -0.00    -0.05   0.06  -0.00
   3   8    -0.08  -0.03  -0.04     0.03   0.01   0.02     0.08   0.03   0.04
   4   7     0.07   0.03  -0.04    -0.01   0.03  -0.00    -0.04   0.06   0.00
   5   7    -0.00   0.00  -0.01    -0.01  -0.01   0.01    -0.01  -0.01   0.02
   6   7     0.04  -0.06   0.03    -0.01   0.01  -0.01    -0.01   0.03  -0.02
   7   7     0.03   0.10   0.03    -0.01  -0.04  -0.01    -0.03  -0.11  -0.04
   8   7     0.13   0.09   0.15    -0.06   0.00  -0.01     0.09   0.03   0.05
   9   6     0.02   0.04  -0.02    -0.02  -0.04   0.01    -0.05  -0.10   0.03
  10   6    -0.01   0.01   0.05    -0.00  -0.01   0.01     0.01  -0.03  -0.01
  11   6     0.06  -0.05   0.00    -0.00   0.02  -0.00     0.01   0.05  -0.01
  12   6    -0.12   0.07  -0.01     0.03  -0.02   0.01     0.07  -0.05   0.02
  13   6     0.07  -0.11  -0.12    -0.02  -0.01  -0.01     0.02  -0.01  -0.00
  14   6     0.10   0.05   0.09     0.01   0.02   0.04     0.04   0.00   0.00
  15   6    -0.19   0.03   0.03     0.03   0.03   0.05    -0.08  -0.02  -0.04
  16   6    -0.15   0.02   0.01    -0.00   0.03   0.04    -0.05  -0.02  -0.03
  17   6     0.05  -0.12  -0.18     0.02  -0.09  -0.13    -0.01   0.02   0.02
  18   1    -0.11  -0.19   0.11     0.09   0.13  -0.08     0.25   0.36  -0.22
  19   1    -0.08  -0.17   0.08     0.05   0.11  -0.05     0.12   0.28  -0.14
  20   1     0.23   0.10  -0.03     0.18   0.07  -0.06     0.31   0.17  -0.16
  21   1    -0.47  -0.20   0.03    -0.10  -0.04   0.07    -0.30  -0.12   0.14
  22   1    -0.15   0.05   0.03    -0.04   0.01  -0.00    -0.17   0.06   0.01
  23   1    -0.38   0.10   0.08     0.08  -0.01  -0.02     0.16   0.00  -0.06
  24   1     0.04   0.05   0.03    -0.01  -0.00   0.01    -0.01   0.00   0.03
  25   1    -0.17  -0.11  -0.17    -0.14  -0.06  -0.10    -0.02  -0.05  -0.06
  26   1    -0.05   0.02   0.03     0.78  -0.07  -0.02    -0.37   0.02  -0.01
  27   1     0.15  -0.04  -0.04    -0.41   0.11   0.12     0.26  -0.08  -0.09
                    52                     53                     54
                     a                      a                      a
 Frequencies --  1326.0300              1365.6200              1383.9500
 Red. masses --     1.6590                 1.8340                 1.5980
 Frc consts  --     0.0                    0.0                    0.0
 IR Inten    --   131.1200               140.4300                30.7400
 Raman Activ --
 Depolar     --
 Atom AN      X      Y      Z        X      Y      Z        X      Y      Z  
   1  17     0.00   0.00   0.00    -0.00  -0.00  -0.00     0.00  -0.00  -0.00
   2   8    -0.05   0.06  -0.00    -0.04   0.06  -0.00     0.02  -0.02  -0.00
   3   8     0.06   0.02   0.03     0.07   0.02   0.03    -0.04  -0.01  -0.02
   4   7     0.01  -0.01  -0.01    -0.03   0.00   0.05     0.04  -0.04   0.01
   5   7    -0.00   0.03  -0.00     0.03   0.01  -0.01    -0.01   0.02  -0.01
   6   7     0.01   0.00  -0.01     0.02   0.01   0.00    -0.02  -0.01  -0.01
   7   7    -0.02  -0.10  -0.03    -0.03  -0.10  -0.04     0.02   0.05   0.03
   8   7    -0.01  -0.01  -0.01     0.04   0.01   0.03     0.04   0.01   0.02
   9   6    -0.00   0.06  -0.03     0.08   0.06  -0.05    -0.04  -0.00   0.02
  10   6    -0.00   0.01   0.00    -0.06  -0.03  -0.02    -0.13  -0.03  -0.00
  11   6     0.14  -0.06  -0.01    -0.07  -0.02   0.01     0.03  -0.00  -0.00
  12   6    -0.02  -0.05   0.03    -0.05   0.04  -0.01     0.04  -0.04   0.02
  13   6    -0.01   0.00  -0.00     0.00   0.03   0.03     0.00   0.06   0.05
  14   6    -0.01  -0.00  -0.00     0.04   0.00   0.01     0.04   0.00   0.01
  15   6     0.01   0.00   0.00    -0.04  -0.02  -0.03    -0.04  -0.02  -0.03
  16   6     0.01   0.00   0.00    -0.02  -0.01  -0.02    -0.01  -0.02  -0.03
  17   6    -0.00   0.01   0.01    -0.01  -0.00  -0.00    -0.02   0.00   0.00
  18   1    -0.05  -0.06   0.04    -0.28  -0.45   0.23     0.07   0.17  -0.08
  19   1    -0.17  -0.21   0.15    -0.13  -0.24   0.19     0.03   0.13  -0.06
  20   1    -0.09  -0.07   0.07     0.36   0.11  -0.11     0.38   0.05  -0.06
  21   1     0.11   0.05  -0.03     0.19   0.09   0.01     0.66   0.28  -0.16
  22   1    -0.61   0.27   0.07     0.33  -0.13  -0.03    -0.07   0.06   0.00
  23   1    -0.55   0.21   0.04     0.18  -0.12   0.01    -0.07   0.05  -0.02
  24   1    -0.01   0.08   0.06     0.04  -0.25   0.05    -0.04   0.27  -0.03
  25   1     0.02   0.01   0.02    -0.12  -0.08  -0.15    -0.17  -0.10  -0.20
  26   1     0.02   0.00   0.00     0.05  -0.02  -0.04     0.09  -0.03  -0.06
  27   1    -0.02   0.01   0.01    -0.03  -0.01  -0.02    -0.07  -0.01  -0.03
                    55                     56                     57
                     a                      a                      a
 Frequencies --  1403.3400              1423.7400              1467.2000
 Red. masses --     1.6100                 1.9750                 3.2950
 Frc consts  --     0.0                    0.0                    0.0
 IR Inten    --    39.9100                11.1600               137.8500
 Raman Activ --
 Depolar     --
 Atom AN      X      Y      Z        X      Y      Z        X      Y      Z  
   1  17    -0.00   0.00   0.00    -0.00   0.00   0.00    -0.00   0.00   0.00
   2   8    -0.06   0.08  -0.01     0.00  -0.00   0.00     0.04  -0.06  -0.00
   3   8    -0.02  -0.00  -0.01     0.01   0.00   0.01    -0.04  -0.02  -0.02
   4   7    -0.00  -0.01   0.00     0.03  -0.00   0.01    -0.21   0.07   0.06
   5   7     0.03   0.06  -0.04    -0.00  -0.01   0.01     0.01   0.07  -0.03
   6   7     0.04  -0.11   0.01    -0.00   0.02  -0.00    -0.07   0.02  -0.02
   7   7     0.05  -0.07   0.02    -0.01  -0.01  -0.01     0.01   0.10   0.03
   8   7    -0.02  -0.00  -0.01    -0.09  -0.00  -0.01    -0.01   0.00   0.00
   9   6     0.01  -0.00   0.00    -0.01  -0.00   0.00     0.09   0.01  -0.06
  10   6     0.01   0.01   0.01    -0.11  -0.00   0.04     0.03  -0.02  -0.04
  11   6    -0.03  -0.01   0.01     0.00   0.00  -0.00     0.01  -0.01   0.01
  12   6    -0.03   0.01   0.02    -0.01   0.00  -0.00     0.23  -0.20   0.07
  13   6     0.01  -0.02  -0.02     0.08  -0.08  -0.12     0.01  -0.00  -0.01
  14   6    -0.02  -0.00  -0.00    -0.08  -0.01  -0.02    -0.00  -0.01  -0.01
  15   6     0.02   0.01   0.01     0.11   0.03   0.06     0.01   0.00   0.01
  16   6    -0.00   0.01   0.01    -0.02   0.04   0.06    -0.03   0.01   0.01
  17   6     0.01  -0.01  -0.01     0.06  -0.04  -0.05     0.02  -0.01  -0.01
  18   1    -0.00  -0.01   0.01    -0.01   0.03  -0.02    -0.43  -0.24   0.05
  19   1     0.01  -0.01  -0.01     0.00   0.05  -0.00    -0.27  -0.07   0.39
  20   1    -0.01   0.04  -0.02     0.60   0.13  -0.09     0.26   0.03  -0.06
  21   1    -0.06  -0.04  -0.05     0.20   0.09  -0.10    -0.18  -0.04   0.27
  22   1     0.17  -0.05  -0.01    -0.00   0.00  -0.00     0.00   0.14   0.00
  23   1     0.16  -0.07  -0.03    -0.01   0.01   0.00    -0.01   0.04  -0.13
  24   1    -0.06   0.92   0.11     0.02  -0.19  -0.01    -0.08   0.29  -0.11
  25   1     0.06   0.04   0.07     0.29   0.20   0.34     0.06   0.02   0.05
  26   1    -0.06   0.02   0.02    -0.39   0.10   0.10    -0.04   0.01   0.01
  27   1     0.03   0.00   0.01     0.11   0.02   0.05     0.08  -0.01  -0.01
                    58                     59                     60
                     a                      a                      a
 Frequencies --  1482.0400              1498.5100              1504.5100
 Red. masses --     1.1310                 2.2520                 1.0960
 Frc consts  --     0.0                    0.0                    0.0
 IR Inten    --    13.6400               107.2300                 2.8900
 Raman Activ --
 Depolar     --
 Atom AN      X      Y      Z        X      Y      Z        X      Y      Z  
   1  17    -0.00  -0.00  -0.00    -0.00   0.00   0.00    -0.00   0.00  -0.00
   2   8     0.00   0.00   0.00     0.00  -0.00   0.00     0.00  -0.00   0.00
   3   8     0.00  -0.00   0.00     0.00  -0.00   0.00     0.00   0.00   0.00
   4   7     0.01   0.01  -0.01    -0.00   0.01  -0.00     0.00   0.01  -0.00
   5   7     0.00  -0.00   0.00     0.00   0.00  -0.00     0.01   0.00  -0.00
   6   7     0.01  -0.01   0.00     0.00  -0.00   0.00     0.00   0.01  -0.00
   7   7    -0.00  -0.00  -0.00    -0.01   0.01  -0.00    -0.00   0.00  -0.00
   8   7    -0.01  -0.01  -0.01     0.05   0.06   0.10    -0.00  -0.00  -0.00
   9   6    -0.01  -0.00   0.01    -0.00  -0.00  -0.00    -0.02   0.01   0.01
  10   6    -0.03   0.02  -0.07     0.02   0.01  -0.01     0.00  -0.00   0.00
  11   6    -0.00   0.00   0.00    -0.00  -0.00   0.00    -0.03  -0.06   0.05
  12   6    -0.02   0.02  -0.01     0.00  -0.00   0.00    -0.02  -0.01   0.01
  13   6     0.02   0.00   0.01    -0.11  -0.02  -0.05     0.00  -0.00   0.00
  14   6     0.00  -0.01  -0.01    -0.06   0.04   0.05     0.00  -0.00  -0.00
  15   6    -0.01   0.00   0.00     0.09  -0.03  -0.03    -0.00   0.00   0.00
  16   6    -0.03   0.01   0.00     0.20  -0.03  -0.02    -0.00   0.00   0.00
  17   6     0.02   0.01   0.01    -0.10  -0.05  -0.09     0.00   0.00   0.00
  18   1     0.10  -0.02   0.02     0.02  -0.01   0.01     0.20  -0.08   0.09
  19   1     0.04  -0.05  -0.07     0.00  -0.01  -0.01     0.09  -0.14  -0.16
  20   1     0.24  -0.54   0.34     0.14  -0.16   0.12    -0.01   0.01  -0.01
  21   1    -0.02   0.21   0.66    -0.01   0.06   0.23    -0.01  -0.01  -0.01
  22   1    -0.01  -0.02   0.00     0.01   0.02   0.00     0.24   0.62   0.00
  23   1     0.01  -0.01   0.02     0.00   0.00  -0.02     0.02   0.16  -0.64
  24   1     0.00   0.04   0.02    -0.00   0.04   0.01     0.01  -0.05   0.00
  25   1     0.05   0.02   0.03    -0.26  -0.06  -0.12     0.01   0.00   0.00
  26   1     0.08  -0.02  -0.00    -0.60   0.06   0.03     0.01  -0.00  -0.00
  27   1     0.10  -0.02  -0.02    -0.55   0.12   0.12     0.01  -0.00  -0.00
                    61                     62                     63
                     a                      a                      a
 Frequencies --  1534.0900              1600.7100              1629.6900
 Red. masses --     1.1590                 6.6290                 5.3150
 Frc consts  --     0.0                    0.0                    0.0
 IR Inten    --    16.5100                29.1500                46.1900
 Raman Activ --
 Depolar     --
 Atom AN      X      Y      Z        X      Y      Z        X      Y      Z  
   1  17    -0.00   0.00   0.00     0.01  -0.00  -0.00     0.00   0.00   0.00
   2   8     0.00  -0.01  -0.00     0.01  -0.01   0.00    -0.00   0.00  -0.00
   3   8    -0.00  -0.00  -0.00     0.01  -0.00   0.00     0.00  -0.00   0.00
   4   7    -0.04   0.02   0.01    -0.01   0.01   0.00     0.01  -0.00  -0.00
   5   7     0.00   0.02  -0.01     0.01   0.01  -0.01    -0.01  -0.01   0.01
   6   7    -0.01   0.01  -0.00     0.00  -0.00  -0.00     0.00  -0.00   0.00
   7   7    -0.00   0.01   0.00    -0.02   0.01  -0.00    -0.00  -0.00   0.00
   8   7    -0.00   0.00   0.00    -0.03  -0.11  -0.16    -0.14  -0.03  -0.06
   9   6    -0.05   0.05   0.00    -0.00   0.00  -0.00     0.00  -0.00  -0.00
  10   6     0.00  -0.01   0.00    -0.03   0.02   0.03     0.04   0.00   0.01
  11   6     0.01   0.02  -0.02    -0.00   0.00  -0.00     0.00  -0.00   0.00
  12   6     0.04  -0.04   0.01     0.00  -0.02   0.01     0.01   0.02  -0.01
  13   6    -0.00   0.00  -0.00     0.12  -0.21  -0.31    -0.25  -0.01  -0.05
  14   6     0.00  -0.00  -0.00     0.05   0.15   0.23     0.29   0.09   0.18
  15   6     0.01  -0.00  -0.00    -0.14   0.10   0.13     0.30  -0.03  -0.01
  16   6    -0.00   0.00   0.00     0.15  -0.11  -0.15    -0.26  -0.01  -0.04
  17   6     0.00  -0.00  -0.01    -0.11   0.19   0.27     0.08   0.01   0.03
  18   1     0.53  -0.29   0.29     0.02  -0.03   0.02    -0.01   0.00  -0.01
  19   1     0.21  -0.45  -0.42     0.01  -0.03  -0.02    -0.01   0.01   0.01
  20   1     0.03   0.09  -0.06     0.32   0.03   0.01    -0.02  -0.04   0.03
  21   1    -0.01  -0.03  -0.05    -0.08  -0.02  -0.01     0.06   0.03   0.03
  22   1    -0.07  -0.21  -0.00     0.01  -0.02  -0.00    -0.01   0.01   0.00
  23   1    -0.00  -0.05   0.22     0.01  -0.01   0.01    -0.01   0.01  -0.01
  24   1    -0.01   0.04  -0.02    -0.00   0.04   0.01    -0.00   0.02   0.00
  25   1     0.01   0.00   0.00    -0.35  -0.07  -0.13    -0.30  -0.24  -0.41
  26   1    -0.02   0.00   0.00     0.31   0.04   0.09    -0.47   0.06   0.04
  27   1     0.01   0.00   0.00    -0.35  -0.03  -0.08     0.18  -0.10  -0.13
                    64                     65                     66
                     a                      a                      a
 Frequencies --  1660.9600              1688.6100              2976.4300
 Red. masses --     7.3540                 5.7280                 1.0740
 Frc consts  --     0.0                    0.0                    0.0
 IR Inten    --   534.1400               235.2700                46.2200
 Raman Activ --
 Depolar     --
 Atom AN      X      Y      Z        X      Y      Z        X      Y      Z  
   1  17    -0.00   0.00  -0.00    -0.00   0.00  -0.00    -0.00   0.00   0.00
   2   8     0.17  -0.14   0.03    -0.04   0.03  -0.01     0.00  -0.00   0.00
   3   8     0.21   0.02   0.08    -0.06  -0.01  -0.02     0.00   0.00   0.00
   4   7     0.05   0.00  -0.02     0.07   0.03  -0.05     0.00   0.00  -0.00
   5   7     0.08   0.11  -0.07     0.16   0.24  -0.15     0.00   0.00  -0.00
   6   7     0.08  -0.06   0.02    -0.02   0.09  -0.02     0.00  -0.00   0.00
   7   7    -0.50   0.15  -0.15     0.15  -0.02   0.04    -0.00   0.00  -0.00
   8   7    -0.00   0.00   0.00    -0.00  -0.00  -0.00    -0.00   0.00   0.00
   9   6    -0.01  -0.02   0.01    -0.02  -0.03   0.02    -0.00   0.00   0.00
  10   6     0.01   0.00   0.01     0.02   0.01   0.01    -0.01  -0.04  -0.07
  11   6    -0.01  -0.00   0.00    -0.02   0.00   0.00     0.00   0.00  -0.00
  12   6    -0.16  -0.12   0.07    -0.28  -0.34   0.22    -0.00   0.00   0.00
  13   6    -0.01   0.01   0.01    -0.02   0.00   0.00     0.00  -0.00  -0.00
  14   6     0.00  -0.01  -0.01     0.01   0.00   0.01     0.00   0.00   0.00
  15   6     0.01  -0.00  -0.00     0.01  -0.00  -0.00     0.00   0.00   0.00
  16   6    -0.01   0.01   0.01    -0.01   0.00  -0.00     0.00  -0.00  -0.00
  17   6     0.01  -0.01  -0.01     0.00  -0.00   0.00     0.00   0.00   0.00
  18   1    -0.01   0.09  -0.06    -0.01   0.14  -0.09     0.00   0.00  -0.01
  19   1     0.01   0.08   0.00     0.03   0.14  -0.02     0.01  -0.00   0.01
  20   1    -0.09   0.02  -0.01    -0.08  -0.09   0.07     0.01   0.58   0.80
  21   1     0.00  -0.03  -0.09    -0.02   0.01   0.06     0.05  -0.14   0.02
  22   1     0.08  -0.11  -0.01     0.12  -0.19  -0.03    -0.00   0.00   0.01
  23   1     0.10  -0.06   0.06     0.19  -0.11   0.12    -0.00  -0.00  -0.00
  24   1     0.01   0.64   0.20     0.04  -0.64  -0.03     0.00  -0.00  -0.00
  25   1     0.04   0.01   0.03    -0.01  -0.00  -0.01    -0.00   0.00   0.00
  26   1    -0.01  -0.00  -0.00    -0.01  -0.00  -0.00    -0.01  -0.01  -0.02
  27   1     0.03  -0.00   0.00     0.00  -0.00  -0.00    -0.00   0.00   0.00
                    67                     68                     69
                     a                      a                      a
 Frequencies --  2982.7600              3034.3200              3084.6300
 Red. masses --     1.0730                 1.0690                 1.0920
 Frc consts  --     0.0                    0.0                    0.0
 IR Inten    --    42.1400                35.2800                24.1500
 Raman Activ --
 Depolar     --
 Atom AN      X      Y      Z        X      Y      Z        X      Y      Z  
   1  17     0.00   0.00   0.00    -0.00   0.00   0.00     0.00   0.00   0.00
   2   8     0.00  -0.00   0.00     0.00  -0.00  -0.00     0.00  -0.00   0.00
   3   8     0.00  -0.00   0.00    -0.00  -0.00  -0.00     0.00  -0.00   0.00
   4   7     0.00  -0.00   0.00    -0.00   0.00   0.00     0.00  -0.00  -0.00
   5   7     0.00  -0.00  -0.00     0.00  -0.00   0.00     0.00  -0.00   0.00
   6   7     0.00  -0.00  -0.00    -0.00  -0.00   0.00    -0.00  -0.00   0.00
   7   7    -0.00   0.00   0.00     0.00   0.00   0.00    -0.00   0.00   0.00
   8   7    -0.00   0.00  -0.00    -0.00  -0.00  -0.00    -0.00   0.00  -0.00
   9   6     0.02  -0.04  -0.06    -0.01   0.00  -0.01     0.04  -0.00   0.03
  10   6     0.00   0.00  -0.00     0.00  -0.00  -0.00     0.00  -0.00  -0.00
  11   6     0.00   0.01   0.01    -0.00  -0.02   0.07    -0.03  -0.06  -0.03
  12   6    -0.00   0.00   0.00     0.00   0.00  -0.00    -0.00   0.00  -0.00
  13   6    -0.00  -0.00   0.00     0.00  -0.00   0.00     0.00   0.00   0.00
  14   6    -0.00   0.00  -0.00     0.00   0.00   0.00    -0.00   0.00  -0.00
  15   6     0.00   0.00   0.00     0.00  -0.00  -0.00    -0.00   0.00  -0.00
  16   6     0.00   0.00   0.00    -0.00  -0.00  -0.00    -0.00  -0.00  -0.00
  17   6    -0.00   0.00   0.00     0.00   0.00   0.00     0.00   0.00   0.00
  18   1    -0.12   0.53   0.82    -0.00  -0.01  -0.02     0.01  -0.01  -0.01
  19   1    -0.12   0.00  -0.11     0.10  -0.01   0.08    -0.47   0.05  -0.34
  20   1    -0.00  -0.00   0.01    -0.00   0.00   0.00    -0.00   0.01   0.01
  21   1    -0.00   0.00   0.00    -0.00   0.00  -0.00    -0.00   0.00  -0.00
  22   1    -0.01   0.00  -0.06    -0.11  -0.01  -0.94     0.01  -0.01   0.15
  23   1    -0.02  -0.06  -0.02     0.11   0.26   0.10     0.29   0.70   0.23
  24   1     0.00  -0.00  -0.00     0.00   0.00  -0.00     0.00   0.00   0.00
  25   1     0.00   0.00  -0.00    -0.00   0.00   0.00     0.00  -0.00  -0.00
  26   1    -0.00  -0.00  -0.00     0.00   0.00   0.00     0.00   0.00   0.00
  27   1     0.00   0.00   0.00     0.00   0.00   0.00     0.00   0.00   0.00
                    70                     71                     72
                     a                      a                      a
 Frequencies --  3094.9700              3111.0600              3147.8600
 Red. masses --     1.0970                 1.0880                 1.0910
 Frc consts  --     0.0                    0.0                    0.0
 IR Inten    --    23.7700                 4.0800                18.8400
 Raman Activ --
 Depolar     --
 Atom AN      X      Y      Z        X      Y      Z        X      Y      Z  
   1  17     0.00   0.00   0.00    -0.00   0.00   0.00     0.00   0.00   0.00
   2   8     0.00  -0.00   0.00    -0.00   0.00  -0.00    -0.00   0.00  -0.00
   3   8    -0.00  -0.00  -0.00    -0.00   0.00   0.00    -0.00  -0.00  -0.00
   4   7    -0.00  -0.00  -0.00     0.00   0.00  -0.00    -0.00  -0.00  -0.00
   5   7    -0.00   0.00  -0.00     0.00   0.00   0.00     0.00   0.00   0.00
   6   7     0.00  -0.00   0.00     0.00   0.00   0.00     0.00  -0.00  -0.00
   7   7     0.00   0.00   0.00    -0.00  -0.00   0.00     0.00   0.00   0.00
   8   7    -0.00   0.00  -0.00     0.00   0.00  -0.00     0.00   0.00   0.00
   9   6     0.05   0.00   0.05     0.00  -0.00   0.00     0.00   0.00   0.00
  10   6     0.00  -0.00  -0.00    -0.03   0.08  -0.01     0.00   0.00   0.00
  11   6     0.02   0.04   0.03    -0.00  -0.00   0.00     0.00   0.00   0.00
  12   6    -0.00   0.00   0.00    -0.00   0.00  -0.00    -0.00  -0.00  -0.00
  13   6     0.00   0.00   0.00    -0.00   0.00   0.00     0.00  -0.00  -0.00
  14   6    -0.00   0.00  -0.00     0.00  -0.00   0.00    -0.00  -0.00  -0.00
  15   6    -0.00  -0.00  -0.00     0.00  -0.00  -0.00     0.01   0.05   0.07
  16   6     0.00  -0.00  -0.00    -0.00   0.00   0.00     0.00   0.00   0.00
  17   6    -0.00   0.00   0.00     0.00  -0.00  -0.00    -0.00  -0.00  -0.00
  18   1     0.03  -0.09  -0.13    -0.00  -0.00   0.00     0.00  -0.00  -0.00
  19   1    -0.63   0.08  -0.46    -0.01   0.00  -0.01    -0.00   0.00  -0.00
  20   1     0.00   0.01   0.01    -0.01  -0.07  -0.11    -0.00  -0.01  -0.02
  21   1    -0.00   0.00  -0.00     0.39  -0.87   0.24     0.00  -0.00  -0.00
  22   1    -0.02   0.01  -0.25    -0.00  -0.00  -0.00     0.00   0.00  -0.00
  23   1    -0.19  -0.47  -0.15     0.00   0.00   0.00    -0.00  -0.00  -0.00
  24   1     0.00  -0.00   0.00    -0.00  -0.00   0.00    -0.00  -0.00   0.00
  25   1    -0.00  -0.00   0.00    -0.00   0.00   0.00    -0.00   0.00   0.00
  26   1     0.00   0.00   0.00     0.00   0.00   0.00    -0.15  -0.54  -0.82
  27   1     0.00  -0.00   0.00    -0.00  -0.00  -0.00    -0.00  -0.01  -0.01
                    73                     74                     75
                     a                      a                      a
 Frequencies --  3198.7100              3216.0400              3570.4900
 Red. masses --     1.0900                 1.0950                 1.0770
 Frc consts  --     0.0                    0.0                    0.0
 IR Inten    --     0.2500                 1.2700                77.7300
 Raman Activ --
 Depolar     --
 Atom AN      X      Y      Z        X      Y      Z        X      Y      Z  
   1  17     0.00   0.00   0.00     0.00   0.00   0.00     0.00   0.00   0.00
   2   8     0.00  -0.00   0.00    -0.00   0.00   0.00     0.00   0.00  -0.00
   3   8    -0.00   0.00   0.00     0.00  -0.00  -0.00     0.00   0.00   0.00
   4   7    -0.00  -0.00  -0.00    -0.00   0.00   0.00     0.00  -0.00   0.00
   5   7    -0.00  -0.00   0.00     0.00  -0.00   0.00    -0.00  -0.00  -0.00
   6   7     0.00   0.00   0.00     0.00  -0.00  -0.00    -0.07  -0.01  -0.01
   7   7    -0.00  -0.00  -0.00     0.00   0.00   0.00    -0.00  -0.00   0.00
   8   7     0.00   0.00   0.00     0.00   0.00   0.00     0.00   0.00   0.00
   9   6    -0.00   0.00   0.00    -0.00   0.00  -0.00     0.00  -0.00  -0.00
  10   6    -0.00   0.00   0.00     0.00  -0.00  -0.00     0.00   0.00   0.00
  11   6     0.00   0.00   0.00     0.00   0.00  -0.00    -0.00   0.00  -0.00
  12   6     0.00  -0.00   0.00    -0.00   0.00  -0.00     0.00  -0.00   0.00
  13   6    -0.00  -0.00  -0.00     0.00   0.00   0.00    -0.00  -0.00   0.00
  14   6    -0.06   0.03   0.04     0.03  -0.01  -0.02     0.00   0.00   0.00
  15   6     0.00   0.00   0.00    -0.00   0.00   0.00    -0.00   0.00   0.00
  16   6    -0.01  -0.02  -0.03    -0.02  -0.04  -0.07     0.00  -0.00  -0.00
  17   6    -0.00   0.00   0.00    -0.00   0.00   0.00    -0.00   0.00  -0.00
  18   1     0.00  -0.00  -0.00     0.00   0.00   0.00     0.00  -0.00  -0.00
  19   1     0.00   0.00   0.00     0.00  -0.00  -0.00     0.00  -0.00   0.00
  20   1     0.00   0.00   0.00    -0.00  -0.00  -0.00     0.00  -0.00  -0.00
  21   1     0.00  -0.01   0.00    -0.00   0.00  -0.00     0.00  -0.00   0.00
  22   1     0.00   0.00  -0.00     0.00  -0.00   0.00     0.00  -0.00   0.00
  23   1    -0.00  -0.00  -0.00    -0.00  -0.00  -0.00     0.00  -0.00  -0.00
  24   1     0.00   0.00  -0.00    -0.00  -0.00   0.00     0.99   0.09   0.06
  25   1     0.67  -0.37  -0.49    -0.30   0.16   0.22    -0.00   0.00  -0.00
  26   1    -0.00  -0.01  -0.01    -0.00  -0.01  -0.01    -0.00  -0.00  -0.00
  27   1     0.10   0.21   0.33     0.23   0.48   0.74     0.00   0.00   0.00




