 operating system is UNIX !
 hostname is         compute-2-16.local

 force (compute-2-16.local) : TURBOMOLE V6.4 2 Apr 2012 at 15:30:49
 Copyright (C) 2012 TURBOMOLE GmbH, Karlsruhe


    2017-12-20 19:50:08.073 



                             T U R B O M O L E   

                          a o f o r c e - program

                        using direct algorithms for

                       SCF level calculations of
                         * harmonic force constants
                         * hyperpolarizabilities
                         * IR and RAMAN intensities

                       DFT level calculations of
                         * harmonic force constants
                         * IR intensities
                                                   
       Stephan Boecker, Peter Deglmann, Filipp Furche and Marco Haeser
                          Quantum Chemistry Group
                          Universitaet  Karlsruhe
                                   Germany

 
 
 
 
     References :
 
       RI-J implementation:
         Peter Deglmann, Klaus May, Filipp Furche, Reinhart Ahlrichs
                 Chem. Phys. Lett. 384:103 (2004)
 
       Efficiency, technical details:
         Peter Deglmann, Filipp Furche, Reinhart Ahlrichs
                 Chem. Phys. Lett. 362:511 (2002)
 
       Search of lowest eigenvalues by iterative diagonalization:
         Peter Deglmann, Filipp Furche
                 J. Chem. Phys. 117:9535 (2002)
 
 


              +--------------------------------------------------+
              | Atomic coordinate, charge and isotop information |
              +--------------------------------------------------+


              atomic coordinates              atom shells charge pseudo isotop
     8.08494458   -1.64069088   -1.79313470    cl    13   17.000    0     0
     3.68702292   -1.37029845    1.81168574    s     13   16.000    0     0
    -7.69775792   -3.48826323   -2.14259912    o     11    8.000    0     0
    -4.98253704   -3.90710065    0.91075105    o     11    8.000    0     0
    -2.70723250    0.44427400    2.45495095    n     11    7.000    0     0
    -5.89034977   -0.06892004   -0.65306470    n     11    7.000    0     0
     4.86854402    2.20556315   -1.27432368    n     11    7.000    0     0
    -3.49383463    3.66006174   -0.39809578    n     11    7.000    0     0
    -6.18302647   -2.66463765   -0.62085607    n     11    7.000    0     0
    -0.45277768    1.67809733    3.44239277    c     11    6.000    0     0
     1.84504965    1.36368078    1.80813164    c     11    6.000    0     0
    -3.93404941    1.44814647    0.42545130    c     11    6.000    0     0
     2.77966009    2.99245642    0.05141156    c     11    6.000    0     0
     5.53503922   -0.01928771   -0.56094565    c     11    6.000    0     0
    -4.89555252    4.72144764   -2.49292300    c     11    6.000    0     0
    -0.12586829    0.92123705    5.32949967    h      6    1.000    0     0
    -0.84422506    3.68834593    3.63286913    h      6    1.000    0     0
    -2.90097163   -1.43284966    2.70663688    h      6    1.000    0     0
     1.95389205    4.81189689   -0.35567661    h      6    1.000    0     0
    -6.84574100    0.65367060   -2.13348964    h      6    1.000    0     0
    -4.77463258    3.57324775   -4.21817967    h      6    1.000    0     0
    -4.11005175    6.56639524   -2.94976699    h      6    1.000    0     0
    -6.90168038    5.01138448   -2.04993754    h      6    1.000    0     0
 

     center of nuclear mass  :    0.00000000    0.00000000    0.00000000

     center of nuclear charge:   -0.14165854    0.10121509    0.00947062


              +--------------------------------------------------+
              |               basis set information              |
              +--------------------------------------------------+


              we will work with the  1s 3p 5d  7f  9g ... basis set
              ...i.e. with spherical basis functions...


   type   atoms  prim   cont   basis
   ---------------------------------------------------------------------------
    cl       1     58     37   def-TZVPP   [5s5p2d1f|14s9p2d1f]
    s        1     58     37   def-TZVPP   [5s5p2d1f|14s9p2d1f]
    o        2     46     31   def-TZVPP   [5s3p2d1f|11s6p2d1f]
    n        5     46     31   def-TZVPP   [5s3p2d1f|11s6p2d1f]
    c        6     46     31   def-TZVPP   [5s3p2d1f|11s6p2d1f]
    h        8     16     14   def-TZVPP   [3s2p1d|5s2p1d]
   ---------------------------------------------------------------------------
   total:   23    842    589
   ---------------------------------------------------------------------------

   total number of primitive shells          :  120
   total number of contracted shells         :  217
   total number of cartesian basis functions :  672
   total number of SCF-basis functions       :  589


 symmetry group of the molecule :   c1 

 the group has the following generators :
   c1(z)

    1 symmetry operations found

 there are 1 real representations :   a   

 maximum number of shells which are related by symmetry :  1


 determining totally symmetric integral contributions 
    - equivalent to irreducible tensor elements - 
 which can be formed within each triple of representations :

             representation triple      contributions

              a     a     a               1

    mo occupation :
   irrep   mo's   occupied
    a      589       64
 
 number of basis functions   :          589
 number of occupied orbitals :           64
 
  MOs are in ASCII format !


 reading orbital data $scfmo  from file mos . 

 orbital characterization : scfconv=6
 

         --------------------------------------------------------------
                   checking mo's by calculating trace(D*S)

              number of electrons : 
                 from trace(D*S)         :  127.999999987186
                 from occupation numbers :  128.000000000000

              molecular charge           :    0.000000000000
         --------------------------------------------------------------

 time elapsed for calculating density matrices :   0.075 sec

 number of non-frozen orbitals          :   589
 number of non-frozen occupied orbitals :    64
 Blocking parameters 
 shells:
    index      start shell   last shell  start bf    last bf    #bf 
       1             1         123             1        171    171
       2           124         172           172        342    171
       3           173         200           343        510    168
       4           201         217           511        672    162
  
           ------------------
           density functional
           ------------------
 Becke-3-Parameter hybrid functional: B3-LYP
 exchange:    0.8*LDA + 0.72*B88 + 0.2*HF
 correlation: 0.19*LDA(VWN) + 0.81*LYP
 iterations will be done with small grid
  
 spherical integration : Lebedev's spherical grid
 spherical gridsize    :           3
    i.e. gridpoints    :         302
 value for diffuse not defined
 radial integration    : Chebyshev 2nd kind (scaling 3)
 radial gridsize       :           3
 integration cells     :          23
 partition function    : becke
 partition sharpness   :           3
  
 
 Derivatives of quadrature weights will be included
 
          Overall gridpoints after grid construction =        121539
 Ordering of quadrature gridpoints disabled.
 
 
 
 
 OCCUPIED-OCCUPIED TENSOR SPACES :

          IRREP   tensor space dimension   number of roots

           a              4096                  63
 
 OCCUPIED-VIRTUAL TENSOR SPACES :

          IRREP   tensor space dimension   number of roots

           a             33600                  63
 
 
 
 
 CONSTRUCTING integral bounds

 setting up bound for integral derivative estimation

 increment for numerical differentiation : 0.00050000
 
 machine precision:   2.220446049250313E-016

 integral neglect threshold       :  0.10E-09
 integral storage threshold THIZE :  0.10E-04
 integral storage threshold THIME :         5

 
 
 
 PREPARING NUMERICAL INTEGRATION
 
 Remaining core memory for DFT =         150 MB
 
 Memory needed per atom    =        5299 KiB
 
     i. e.          23 atoms per loop

 Calculating ground state density on molecular grid

 Integral of ground state density: N =   128.0000607169531    


 
 
 CONSTRUCTING first deriv. of <mu|x,y,z|nu> -> Dip. deriv.
  dipole integral derivatives will be neglected if
  expon. factor <0.744048E-11
      ...terminated. cpu:       0.10       wall:       0.11
 
 
 
 
 CONSTRUCTING first deriv. of  <mu|nu>
                               <mu|h|nu>    -> RHS
              second deriv. of <mu|nu>      -> Hessian
                               <mu|h|nu>    -> Hessian
                               nucl. rep.   -> Hessian
     integrals are neglected if expon. factor <  7.440476190476190E-013
  _________________________________
 |                                 |
 |         DFTD3 V2.0 Rev 1        |
 | S.Grimme, University Muenster   |
 | Wed Mar 10 08:38:00 CET 2010    |
 |   see standalone version        |
 |       dftd3 -h for options      |
 |_________________________________|
 
 Please cite DFT-D3 work done with this code as:
 S. Grimme, J. Antony, S. Ehrlich and H. Krieg,
 J. Chem. Phys, 132 (2010), 154104.
 If used with BJ-damping cite also
 S. Grimme, S. Ehrlich and L. Goerigk,
 JCC, submitted.
 For DFT-D2 the reference is
 S. Grimme, J. Comput. Chem., 27 (2006), 1787-1799
 
      ...terminated. cpu:      10.73       wall:      11.19
 
 
 
 
 CONSTRUCTING second deriv. of 2e energy    -> Hessian
   treating Coulomb (and exchange) contribution
     integrals will be neglected if total contribution <  7.440476190476190E-009
      ...terminated. cpu:    2871.63       wall:    2872.24
   treating exchange-correlation contribution
      ...terminated. cpu:     958.03       wall:     958.27
 
 
 
 
 CONSTRUCTING S(i,j)xi
      ...terminated. cpu:       0.15       wall:       0.15
 
 
 
 
 CONSTRUCTING <i|x,y,z|j>*S(i,j)xi          -> Dip. deriv.
      ...terminated. cpu:       0.13       wall:       0.17
 
 
 
 
 CONSTRUCTING epsilon(i)*S(i,j)xi*S(i,j)chi -> Hessian
      ...terminated. cpu:       0.02       wall:       0.02
 
 
 
 
 CONSTRUCTING G(a,i)[S(k,l)xi]              -> RHS
              G(i,j)[S(k,l)xi]*S(i,j)chi    -> Hessian
 
         Maximum core memory set to          200 MB
         This corresponds to          57 vectors in CAO basis
      ...terminated. cpu:    7147.66       wall:    7149.25
 
 
 
 
 CONSTRUCTING G(mu,nu)[D(kap,lam)]xi
 
          Maximum core memory set to          200 MB
          Atoms treated simultaneously :          23
      ...terminated. cpu:    4309.17       wall:    4310.13
 
 
 
 
 CONSTRUCTING F(a,i)xi                      -> RHS
              F(i,j)xi*S(i,j)chi            -> Hessian
 
        Maximum core memory set to         200 MB
        This corresponds to         100 vectors in CAO basis
      ...terminated. cpu:       6.27       wall:       7.13
 
 
 
 
 CONSTRUCTING epsilon(i)*S(a,i)xi           -> RHS
      ...terminated. cpu:       1.54       wall:       1.60
 
 
 
 
 SOLVING CPHF equations
 
 Residuum convergence criterium   :  1.000000000000000E-005
 
 Maximum number of Davidson iterations set to          25
  Switching to small grid
        preparing numerical integration ....
          Overall gridpoints after grid construction =         33851

 Calculating ground state density on molecular grid

 Integral of ground state density: N =   128.0023733779078    




                       Block Davidson iteration


 total number of roots to be determined:  63


 maximum core memory set to   200 MB,
 corresponding to       57 vectors in CAO basis


 maximum number of simultaneously treated vectors (including degeneracy):  63


 Recommendation for optimum performance: Increase the maximum amount of
 allocatable core memory (e.g. $rpacor, $maxcor) to   252 MB or to the
 maximum amount of core memory available on your machine.


 Iteration IRREP Converged      Max. Euclidean
                 roots          residual norm

    1       a        0        8.559661791075127D-02
 
    2       a        0        1.124716028266613D-02
 
    3       a        0        1.529669428381406D-03
 
    4       a        0        1.384061062469433D-04
 
    5       a       63        8.275449781722898D-06
 

 converged!

  Switching to fine grid
        preparing numerical integration ....
          Overall gridpoints after grid construction =        121539

 Calculating ground state density on molecular grid

 Integral of ground state density: N =   128.0000607169531    



 Iteration IRREP Converged      Max. Euclidean
                 roots          residual norm

    6       a        0        1.193284477335689D-04
 

 NOTE: Residual norms are larger than 1.00D-05 due to mgrid option!

      ...terminated. cpu:   43171.67       wall:   43182.94
 
 
 
 
 CONSTRUCTING <a|x,y,z|i>*U(a,i)xi          -> Dip. deriv.
      ...terminated. cpu:       0.18       wall:       0.21
 
 
 
 
 CONSTRUCTING RHS(a,i)xi*U(a,i)chi          -> Hessian
      ...terminated. cpu:       0.09       wall:       0.10
 
 
 
 

            -----------------------
            permanent dipole moment
            -----------------------

                                   x                y                z
    electronic part       :   17.4752055804   -12.2764709725    -0.7275931932
     nuclear   part       :  -18.1322930781    12.9555310357     1.2122393720
     total                :   -0.6570874978     0.6790600632     0.4846461788

 with reference to the point :   0.0000000        0.0000000        0.0000000
 (given in atomic units)
    | dipole |       :    2.6992647622  debye

   ***  dipole moment & cartesian dipole gradients written onto
        $dipole, $dipgrad,  file=<dipgrad>  ***

             -----------------------------------
             rotational and vibrational analysis
             -----------------------------------


            ==============================================================
            ATOMIC WEIGHTS (average over the natural occurance of isotops)
            ==============================================================
            ('*' denotes special isotop !)
              1     cl               35.45300
              2     s                32.06400
              3     o                15.99940
              4     o                15.99940
              5     n                14.00670
              6     n                14.00670
              7     n                14.00670
              8     n                14.00670
              9     n                14.00670
             10     c                12.01115
             11     c                12.01115
             12     c                12.01115
             13     c                12.01115
             14     c                12.01115
             15     c                12.01115
             16     h                 1.00797
             17     h                 1.00797
             18     h                 1.00797
             19     h                 1.00797
             20     h                 1.00797
             21     h                 1.00797
             22     h                 1.00797
             23     h                 1.00797

          -------------------------------------------------
          CARTESIAN FORCE CONSTANT MATRIX (hartree/bohr**2)
         (translational & rotational space projected out)
          -------------------------------------------------

   ATOM              1 cl                          2 s 
                  dx        dy        dz        dx        dy        dz
   1 cl    dx  0.1499773
           dy -0.0845474 0.0801270
           dz -0.0694402 0.0319278 0.0516898
   2 s     dx -0.0161898-0.0005001 0.0149673 0.1617068
           dy  0.0070367 0.0049199-0.0085186-0.0483314 0.2552367
           dz  0.0101866-0.0018541-0.0067961-0.0750840-0.0853674 0.1532296
   3 o     dx -0.0004578 0.0002290 0.0002514-0.0000423-0.0002188 0.0002067
           dy -0.0003938 0.0002400 0.0002173-0.0000427-0.0001566 0.0000814
           dz -0.0004429 0.0002311 0.0002567-0.0000495-0.0002230 0.0002135
   4 o     dx -0.0002476 0.0000626 0.0001427 0.0000651-0.0002079 0.0003160
           dy -0.0002469 0.0001836 0.0001017 0.0000058-0.0000722-0.0001112
           dz -0.0001720 0.0000669 0.0000849 0.0000580-0.0001039 0.0001322
   5 n     dx -0.0012797 0.0010532 0.0008062 0.0008244-0.0021471-0.0008905
           dy -0.0001772 0.0000115-0.0000327 0.0000050 0.0003143 0.0003926
           dz -0.0006162 0.0001815 0.0004339 0.0002739-0.0007579 0.0008079
   6 n     dx -0.0003899 0.0002100 0.0002294-0.0000347-0.0001826 0.0001311
           dy -0.0005630 0.0003959 0.0003120-0.0001403-0.0001722-0.0000241
           dz -0.0002848 0.0001697 0.0002046 0.0000342-0.0002987 0.0000322
   7 n     dx -0.0187108 0.0331690-0.0050010 0.0034263 0.0248089-0.0001061
           dy  0.0257954-0.0297375-0.0064205-0.0177811-0.0532834 0.0572517
           dz -0.0009005-0.0123416 0.0057049 0.0244642 0.0209190-0.0139849
   8 n     dx -0.0004584 0.0003590 0.0002384-0.0002703 0.0002919 0.0001403
           dy  0.0004887-0.0002250-0.0003223-0.0004895 0.0011447-0.0003357
           dz -0.0005259 0.0001955 0.0002595 0.0000492-0.0006030 0.0002849
   9 n     dx  0.0005533-0.0002675-0.0003304-0.0000352 0.0004030-0.0003961
           dy  0.0009085-0.0005823-0.0004476 0.0001596 0.0003163 0.0000542
           dz  0.0004227-0.0001479-0.0002482-0.0000314 0.0002494-0.0004372
  10 c     dx  0.0018248-0.0008636-0.0003305-0.0109574 0.0058647 0.0047740
           dy  0.0024104 0.0010714-0.0013704 0.0181119-0.0025143-0.0156900
           dz -0.0003508 0.0004023 0.0010318-0.0011655-0.0035585 0.0007713
  11 c     dx -0.0034874 0.0013455 0.0027391-0.0709062 0.0396056 0.0078048
           dy  0.0008290-0.0033569 0.0015796 0.0597518-0.1123353-0.0054021
           dz  0.0033128 0.0004936-0.0025361-0.0057702 0.0122842-0.0362495
  12 c     dx  0.0010588-0.0005768-0.0005553-0.0003528 0.0008261-0.0003132
           dy -0.0003887 0.0001075 0.0002994 0.0007128-0.0015693 0.0002552
           dz  0.0014118-0.0007158-0.0008342-0.0005187 0.0015219-0.0005109
  13 c     dx  0.0028095 0.0001237 0.0025688-0.0022599-0.0093910 0.0152686
           dy  0.0010968 0.0003692 0.0023577 0.0257950-0.0515565 0.0129570
           dz  0.0021523 0.0032636 0.0025530-0.0042668 0.0432562-0.0117157
  14 c     dx -0.1141171 0.0490476 0.0533297-0.0662330-0.0167705 0.0319499
           dy  0.0478827-0.0536258-0.0198921-0.0373417-0.0423994 0.0346249
           dz  0.0541299-0.0210856-0.0521144 0.0433846 0.0168020-0.0868808
  15 c     dx  0.0001705-0.0000890-0.0000848 0.0000790-0.0000997-0.0000658
           dy -0.0002492 0.0000880 0.0001627-0.0000255-0.0002256 0.0002045
           dz  0.0003452-0.0001576-0.0002026 0.0000346 0.0002630-0.0001745
  16 h     dx -0.0000635 0.0003283 0.0000160 0.0007337 0.0001020-0.0003467
           dy -0.0001394 0.0000205 0.0000998-0.0004520 0.0006313-0.0001248
           dz -0.0000001-0.0001777 0.0001591-0.0004006-0.0000684 0.0004848
  17 h     dx -0.0007036-0.0002282 0.0003280-0.0017530-0.0001561 0.0031752
           dy -0.0002077 0.0000509-0.0000727-0.0003754 0.0012384-0.0000256
           dz  0.0002605 0.0001664-0.0001839 0.0015359-0.0000897-0.0015787
  18 h     dx  0.0001760 0.0000013-0.0001324-0.0005708 0.0000257-0.0003650
           dy  0.0002328-0.0001799-0.0001376 0.0000105 0.0001558 0.0001083
           dz -0.0000761-0.0000018 0.0000275 0.0000851-0.0000986 0.0004035
  19 h     dx -0.0003044 0.0010752 0.0002142 0.0027617-0.0013011 0.0035642
           dy  0.0002112 0.0000887 0.0001889 0.0009275 0.0002751 0.0030495
           dz  0.0007623-0.0006811 0.0003706 0.0024063 0.0045605 0.0018614
  20 h     dx  0.0000105-0.0000062-0.0000268 0.0000164 0.0000183-0.0000226
           dy -0.0000696 0.0000433 0.0000241 0.0000154-0.0000930 0.0000333
           dz  0.0000451-0.0000111-0.0000121 0.0000138 0.0000220-0.0000249
  21 h     dx -0.0000513 0.0000249 0.0000143-0.0000089-0.0000628 0.0000249
           dy -0.0000031-0.0000017 0.0000120-0.0000257-0.0000087 0.0000106
           dz -0.0001311 0.0000537 0.0000780-0.0000171-0.0000772 0.0000626
  22 h     dx  0.0000249-0.0000185-0.0000136 0.0000147-0.0000558 0.0000007
           dy  0.0000441-0.0000182-0.0000314 0.0000041 0.0000856-0.0000545
           dz -0.0000260 0.0000082 0.0000181 0.0000072-0.0000144 0.0000186
  23 h     dx -0.0001443 0.0000680 0.0000695-0.0000137-0.0000582 0.0000470
           dy  0.0000496 0.0000099-0.0000371 0.0000060 0.0000684-0.0000338
           dz -0.0000626 0.0000140 0.0000550-0.0000106-0.0000990 0.0000507

   ATOM              3 o                           4 o 
                  dx        dy        dz        dx        dy        dz
   3 o     dx  0.3044666
           dy  0.1353317 0.2068491
           dz  0.2718461 0.1198568 0.3129846
   4 o     dx -0.0341187 0.0227279-0.0742372 0.2215622
           dy  0.0020021 0.0402067 0.0011049-0.1262289 0.2834907
           dz -0.0701666 0.0231046-0.0515192 0.2244639-0.1802622 0.3120684
   5 n     dx -0.0017760-0.0023947-0.0006713-0.0025158-0.0097296-0.0044252
           dy -0.0029065 0.0000537-0.0033310-0.0094320-0.0023388-0.0081471
           dz  0.0001979-0.0029001 0.0001970-0.0010318-0.0084850 0.0029952
   6 n     dx -0.0043286-0.0628379-0.0202995 0.0127166 0.0344199-0.0099816
           dy -0.0424660-0.0601364-0.0345684 0.0277687-0.0558197 0.0411316
           dz -0.0235753-0.0521276 0.0017285-0.0070463 0.0490025 0.0025227
   7 n     dx -0.0003726-0.0004427-0.0003384-0.0000622-0.0004237-0.0000702
           dy  0.0002115 0.0004734 0.0001297-0.0002629 0.0007329-0.0002087
           dz  0.0002814 0.0000615 0.0003886 0.0003786-0.0001615 0.0003950
   8 n     dx -0.0027269-0.0055490-0.0011626 0.0015892-0.0024134 0.0026598
           dy -0.0019775-0.0055707-0.0043925-0.0008510-0.0031096-0.0018978
           dz  0.0007787-0.0021527-0.0014770 0.0044266-0.0017365 0.0038224
   9 n     dx -0.2676544-0.0980286-0.1764650-0.2000397 0.1008062-0.1398517
           dy -0.0922001-0.1867252-0.0817134 0.0877226-0.2460663 0.1251609
           dz -0.1780936-0.0914782-0.2686764-0.1383924 0.1359984-0.2652187
  10 c     dx  0.0012572 0.0007589 0.0016128 0.0024815 0.0017163 0.0019884
           dy  0.0004320 0.0012532-0.0001955-0.0021634-0.0009121-0.0021000
           dz  0.0009247 0.0000497 0.0003617 0.0004746 0.0003100 0.0010687
  11 c     dx -0.0002125-0.0000535 0.0000143-0.0000356 0.0002213 0.0000635
           dy -0.0003164-0.0005023-0.0000537 0.0004037-0.0007094 0.0001836
           dz -0.0001474-0.0001187-0.0001197 0.0000242-0.0000502-0.0000025
  12 c     dx  0.0068082 0.0145738-0.0002164-0.0071984 0.0085743-0.0092623
           dy -0.0001812 0.0022847 0.0020317 0.0033294 0.0051026 0.0015460
           dz -0.0020105 0.0099898 0.0054372-0.0117769 0.0086379-0.0127029
  13 c     dx  0.0000406 0.0000906 0.0000611-0.0000442 0.0001838-0.0000444
           dy  0.0000453-0.0000739 0.0000046 0.0001200-0.0000376 0.0001183
           dz -0.0002595-0.0002652-0.0001339-0.0000016-0.0002643 0.0000799
  14 c     dx  0.0004914 0.0002998 0.0005161 0.0004519-0.0000429 0.0003089
           dy -0.0002451-0.0003361-0.0001911 0.0000362-0.0004070 0.0000164
           dz -0.0003660 0.0000018-0.0004926-0.0006582 0.0005375-0.0004687
  15 c     dx -0.0005571-0.0004675-0.0010584 0.0001988-0.0009502 0.0001876
           dy  0.0010205 0.0016278 0.0014887-0.0002585 0.0005396-0.0002688
           dz -0.0018523-0.0016729-0.0015671-0.0001825-0.0007736-0.0000886
  16 h     dx -0.0001286-0.0003473-0.0001370 0.0000794-0.0002865 0.0002116
           dy  0.0000775-0.0000766 0.0000441 0.0001515 0.0000007 0.0002244
           dz -0.0000381-0.0001708-0.0000175 0.0001112-0.0001595 0.0001722
  17 h     dx -0.0002018 0.0000552-0.0003808-0.0009234-0.0004110-0.0007773
           dy -0.0002121 0.0000521-0.0001557-0.0006531-0.0002236-0.0005884
           dz  0.0000924 0.0002494-0.0000216-0.0003615 0.0000360-0.0003105
  18 h     dx  0.0024422-0.0014463 0.0018642 0.0014364-0.0036306 0.0060275
           dy  0.0024829-0.0021901 0.0031870 0.0007054-0.0130434 0.0033079
           dz  0.0008848-0.0005343 0.0021697 0.0044356-0.0011875 0.0018825
  19 h     dx  0.0001201 0.0002025 0.0000715-0.0000690 0.0001748-0.0001216
           dy  0.0001336 0.0001768 0.0000716-0.0000287 0.0001557-0.0000845
           dz -0.0000116-0.0000067-0.0000610-0.0000278-0.0000240-0.0000691
  20 h     dx -0.0038020-0.0027382-0.0010970 0.0044655-0.0038974-0.0011958
           dy -0.0011224 0.0025906-0.0033625-0.0024784-0.0079966-0.0007603
           dz  0.0002366-0.0029771-0.0007665-0.0014988-0.0023905 0.0045830
  21 h     dx  0.0000673 0.0002851 0.0002037-0.0001910 0.0003787-0.0001492
           dy  0.0001334 0.0001893 0.0002797-0.0003332 0.0001910-0.0000933
           dz  0.0004759 0.0004112 0.0008092 0.0002727-0.0001150 0.0003619
  22 h     dx  0.0000354-0.0000380 0.0000330 0.0000815-0.0002448 0.0001524
           dy -0.0001733-0.0002320-0.0001044 0.0000744-0.0002576 0.0000992
           dz  0.0001693 0.0001280 0.0002201 0.0001215-0.0001336 0.0001135
  23 h     dx  0.0006505 0.0004547 0.0003333 0.0003174 0.0000227 0.0000963
           dy -0.0000802 0.0000026-0.0001388-0.0002044 0.0003904-0.0004447
           dz  0.0001748 0.0002525 0.0000857 0.0000474 0.0001259 0.0000977

   ATOM              5 n                           6 n 
                  dx        dy        dz        dx        dy        dz
   5 n     dx  0.4029647
           dy  0.1019562 0.7532710
           dz  0.2504547-0.1583137 0.3706406
   6 n     dx -0.0253986-0.0135772-0.0236054 0.3853811
           dy  0.0046244 0.0163944-0.0072577 0.0358298 0.5220154
           dz -0.0374786-0.0217884-0.0186967 0.3625267-0.1355970 0.4898605
   7 n     dx -0.0026871 0.0008145-0.0016937-0.0005147-0.0006679-0.0003983
           dy  0.0045681 0.0003394-0.0008470 0.0004069 0.0010000 0.0003164
           dz  0.0035552-0.0004076 0.0009168 0.0001837-0.0002375 0.0002871
   8 n     dx  0.0137301 0.0196079-0.0015681 0.0000713-0.0499263 0.0034607
           dy  0.0093242-0.0397353 0.0473498-0.0405310-0.0585735 0.0021919
           dz -0.0005480 0.0558886-0.0259333-0.0034456-0.0089994 0.0188828
   9 n     dx  0.0018538 0.0056294-0.0020462-0.1038981-0.0116187-0.0485697
           dy  0.0064473-0.0055341 0.0105999 0.0079856-0.1413438 0.0406618
           dz  0.0007468 0.0071411-0.0045974-0.0533679-0.0080602-0.1052741
  10 c     dx -0.1447499-0.0516124-0.0526336 0.0030405 0.0003207 0.0017292
           dy -0.0431271-0.1284469-0.0008413 0.0021648 0.0002228 0.0059182
           dz -0.0471324-0.0065526-0.0854846-0.0028207 0.0046065-0.0007510
  11 c     dx -0.0432701-0.0065113 0.0056774 0.0004169-0.0008834-0.0009477
           dy -0.0187731 0.0030584 0.0057639-0.0000985-0.0011523-0.0006506
           dz -0.0017013 0.0041395 0.0106638 0.0000600-0.0001842-0.0000800
  12 c     dx -0.1398086 0.0201540-0.1034975-0.1306582-0.0164663-0.0795194
           dy  0.0181335-0.1508695 0.0660811-0.0209381-0.1087019 0.0052423
           dz -0.1182237 0.0855973-0.2031195-0.0651961 0.0266306-0.1046656
  13 c     dx  0.0011942-0.0000548-0.0002026 0.0001264 0.0000650-0.0000521
           dy  0.0023977-0.0002012 0.0024732 0.0000644-0.0003927 0.0003998
           dz -0.0051900 0.0012692-0.0005773-0.0000616-0.0005414-0.0005268
  14 c     dx  0.0007389-0.0003274 0.0005722 0.0002357 0.0002454 0.0001074
           dy -0.0037984 0.0006588-0.0002979-0.0003430-0.0005172-0.0003242
           dz  0.0020039 0.0001415-0.0006267 0.0000313 0.0003331 0.0000645
  15 c     dx  0.0037702-0.0040491-0.0022605-0.0056285-0.0051763 0.0040516
           dy -0.0053072 0.0011617-0.0030799 0.0060176 0.0011488 0.0012832
           dz -0.0020161-0.0001277 0.0088067-0.0015335-0.0082397-0.0025252
  16 h     dx -0.0141209 0.0106524-0.0304974-0.0009864 0.0006205-0.0012198
           dy -0.0093142 0.0064238-0.0194955-0.0009218 0.0004333-0.0006405
           dz -0.0085411 0.0042325-0.0118933-0.0004037 0.0001970-0.0005274
  17 h     dx -0.0009930-0.0350553-0.0041029-0.0004272 0.0002605 0.0000877
           dy -0.0069839-0.0180339-0.0021108 0.0000604 0.0002092-0.0002303
           dz -0.0018284-0.0146614-0.0014068-0.0000664 0.0007052 0.0001024
  18 h     dx -0.0457916-0.0348748-0.0306334-0.0022453-0.0038331 0.0007159
           dy -0.0428714-0.4300628 0.0698103-0.0013891-0.0052761-0.0002418
           dz -0.0268548 0.0516041-0.0386523 0.0007402-0.0023770-0.0005782
  19 h     dx -0.0007644-0.0001661-0.0003548 0.0001381 0.0006223-0.0000406
           dy -0.0005479-0.0000333-0.0003198 0.0000939 0.0004992 0.0000154
           dz -0.0005112-0.0004957 0.0000647-0.0000336 0.0000614 0.0000079
  20 h     dx -0.0011803-0.0030799 0.0001619-0.1298943 0.0588574-0.1734669
           dy -0.0047290-0.0042189-0.0006685 0.0534598-0.1120787 0.1068946
           dz -0.0009198-0.0005694 0.0008588-0.1849377 0.1303734-0.2815636
  21 h     dx -0.0008684 0.0008227-0.0001640 0.0010601 0.0010957 0.0003951
           dy  0.0012858-0.0008856 0.0004461 0.0002278 0.0013680 0.0002026
           dz -0.0011849 0.0024036-0.0021096 0.0022584 0.0013170 0.0005381
  22 h     dx  0.0002305 0.0006284-0.0001653-0.0000889-0.0004456-0.0006848
           dy  0.0000880-0.0004561 0.0004131-0.0001839 0.0000293 0.0001677
           dz  0.0000287 0.0011336-0.0004325-0.0005877-0.0004111 0.0002399
  23 h     dx -0.0001024 0.0015534-0.0022646 0.0013069 0.0018766 0.0001758
           dy -0.0001550-0.0008708 0.0022563 0.0000623 0.0004483-0.0005669
           dz  0.0005218 0.0004835-0.0028557 0.0001803 0.0008298 0.0007173

   ATOM              7 n                           8 n 
                  dx        dy        dz        dx        dy        dz
   7 n     dx  0.3494414
           dy -0.1671880 0.5320465
           dz -0.1254538-0.1130429 0.2612591
   8 n     dx -0.0004421 0.0003208-0.0008508 0.2012289
           dy  0.0006937 0.0003309-0.0013504 0.0405218 0.6423002
           dz -0.0007618 0.0003418 0.0011408 0.1016616-0.2793470 0.3582592
   9 n     dx  0.0003428 0.0000689-0.0005429-0.0042125-0.0040962-0.0090359
           dy  0.0011486-0.0016547 0.0001441 0.0076023 0.0133789 0.0071604
           dz  0.0001694 0.0003445-0.0007298-0.0091704 0.0035138-0.0006488
  10 c     dx  0.0073358-0.0018831 0.0007995-0.0002942-0.0080605 0.0046129
           dy -0.0026775 0.0023074 0.0045885 0.0008359-0.0060903 0.0019057
           dz  0.0049025 0.0060701 0.0021717-0.0015614-0.0047284-0.0006917
  11 c     dx -0.0346025 0.0094880 0.0337568 0.0002620 0.0012816 0.0009699
           dy -0.0307541 0.0199579 0.0212858-0.0009313 0.0013333-0.0005743
           dz  0.0582400-0.0177017-0.0287532 0.0003154 0.0000978-0.0000730
  12 c     dx  0.0009972-0.0007123-0.0007577-0.0957466-0.0741293 0.0115567
           dy -0.0009786 0.0000613 0.0021863-0.0434618-0.4484359 0.1705545
           dz  0.0018917-0.0014548-0.0026357-0.0095391 0.1365966-0.1516464
  13 c     dx -0.1905903 0.0428130 0.0821152-0.0010702 0.0004152 0.0002208
           dy  0.0483524-0.0984470-0.0218135-0.0012567-0.0023233 0.0007102
           dz  0.0771598-0.0157918-0.1226005 0.0004066 0.0009503-0.0001394
  14 c     dx -0.0991900 0.0819543-0.0127660 0.0005041-0.0003927 0.0003738
           dy  0.0902091-0.3699845 0.1019154 0.0002006 0.0005019-0.0004013
           dz -0.0174762 0.1099670-0.1064758-0.0003009 0.0002823-0.0002382
  15 c     dx  0.0001191-0.0001697-0.0000259-0.1002377 0.0429807-0.0659573
           dy -0.0002636-0.0000085 0.0001638 0.0168581-0.0893663 0.0347497
           dz  0.0003768-0.0001504-0.0003362-0.0521976 0.0599298-0.1523789
  16 h     dx -0.0023226 0.0002017 0.0000029 0.0000362 0.0005133-0.0002117
           dy  0.0002118 0.0001272-0.0002548 0.0015802 0.0006306 0.0007393
           dz  0.0007671-0.0002781 0.0001774 0.0002032 0.0000586 0.0002044
  17 h     dx  0.0000196-0.0003795 0.0001080 0.0000265 0.0014881-0.0011313
           dy  0.0004901 0.0000753-0.0000659 0.0008721 0.0008585 0.0015644
           dz -0.0002154 0.0001370 0.0000774 0.0003806 0.0006845-0.0013571
  18 h     dx  0.0002240 0.0003630-0.0003605-0.0021383 0.0034842-0.0051629
           dy  0.0003779-0.0005100-0.0000977 0.0002806 0.0016857-0.0024483
           dz  0.0000742 0.0000345 0.0000137-0.0042821 0.0017664-0.0047268
  19 h     dx -0.0122312 0.0221516-0.0042027 0.0002403 0.0007992-0.0005584
           dy  0.0031141-0.0038838-0.0014565 0.0014956 0.0004376-0.0004533
           dz  0.0081698-0.0187777 0.0027793-0.0000634-0.0000739-0.0004384
  20 h     dx -0.0000222 0.0000115 0.0000119-0.0000165 0.0017604 0.0007462
           dy -0.0000842 0.0000303 0.0000932-0.0000235-0.0035866 0.0009786
           dz  0.0000173 0.0000336-0.0000513 0.0003942 0.0019563-0.0016516
  21 h     dx -0.0000473-0.0000044 0.0000997-0.0012191-0.0049531-0.0196024
           dy  0.0000067-0.0000066 0.0000108-0.0033731 0.0106978 0.0128259
           dz -0.0001620 0.0000720 0.0001465-0.0051687-0.0008515-0.0290937
  22 h     dx  0.0000334-0.0000683 0.0000463 0.0062302 0.0206820-0.0086309
           dy  0.0000393 0.0000364-0.0000847 0.0015643-0.0107876 0.0088548
           dz -0.0000233-0.0000113 0.0000063 0.0043113 0.0281588-0.0136073
  23 h     dx -0.0001441 0.0000945 0.0000573-0.0150860 0.0110478-0.0098243
           dy  0.0000441-0.0000029-0.0000537 0.0145439-0.0054960 0.0002464
           dz -0.0000684-0.0000134 0.0001029-0.0283071 0.0097626 0.0012477

   ATOM              9 n                          10 c 
                  dx        dy        dz        dx        dy        dz
   9 n     dx  0.5735540
           dy  0.0069367 0.6091679
           dz  0.3528756-0.0653964 0.6448892
  10 c     dx -0.0028157-0.0013000-0.0029848 0.4268628
           dy  0.0004002-0.0043446 0.0013919-0.0409096 0.5915132
           dz -0.0009592 0.0000012-0.0007074 0.0175517-0.0480036 0.5533748
  11 c     dx  0.0002811 0.0001424-0.0000199-0.1419466 0.0229577 0.0666065
           dy -0.0000187 0.0017238-0.0004899 0.0198796-0.0804655-0.0001425
           dz  0.0001183 0.0003885 0.0000300 0.0663659-0.0040709-0.1241979
  12 c     dx  0.0053464-0.0408135 0.0258878-0.0238289 0.0061595-0.0288743
           dy -0.0230948-0.0290892-0.0153572 0.0046275 0.0191456-0.0100972
           dz  0.0242411-0.0407711 0.0087242-0.0193237-0.0088871-0.0234264
  13 c     dx -0.0000075-0.0003810 0.0000243-0.0080654-0.0134491 0.0172700
           dy -0.0002208 0.0000443-0.0001422-0.0019953 0.0081045-0.0075200
           dz  0.0002385 0.0007862-0.0000968 0.0087869 0.0061700-0.0100429
  14 c     dx -0.0008313-0.0004050-0.0007273-0.0001004 0.0017506-0.0013914
           dy  0.0001930 0.0010851 0.0000072 0.0034030-0.0091122 0.0017015
           dz  0.0008421-0.0007365 0.0010226-0.0014930 0.0036159 0.0010314
  15 c     dx  0.0006749 0.0027940 0.0018586-0.0004289-0.0004147 0.0000095
           dy  0.0014433-0.0018728 0.0006487 0.0009293 0.0007968-0.0003294
           dz  0.0008568 0.0019816-0.0005197-0.0009667-0.0001574-0.0007628
  16 h     dx  0.0001184 0.0011042-0.0000849-0.0509445 0.0140269-0.0319959
           dy -0.0000651 0.0004322-0.0001474 0.0185965-0.0895051 0.0950326
           dz -0.0000032 0.0006292-0.0001530-0.0372135 0.0890069-0.2646136
  17 h     dx  0.0007129-0.0004822 0.0008702-0.0572741 0.0585799 0.0061776
           dy  0.0005739-0.0005053 0.0005522 0.0514896-0.3000593-0.0236979
           dz  0.0002292-0.0005901 0.0003911 0.0049354-0.0175562-0.0501325
  18 h     dx -0.0062079 0.0077347-0.0091857-0.0026124-0.0251402 0.0051619
           dy -0.0047888 0.0141533-0.0075985 0.0002693-0.0033389-0.0012247
           dz -0.0060337 0.0039896-0.0065970 0.0026571-0.0144698 0.0011951
  19 h     dx  0.0000085-0.0005141 0.0001429-0.0003729-0.0008162-0.0020566
           dy -0.0000462-0.0004354 0.0001390-0.0005834 0.0000227-0.0013563
           dz  0.0000013 0.0000086 0.0000961-0.0022086-0.0005854-0.0008552
  20 h     dx  0.0023826 0.0059789 0.0084782 0.0006986 0.0004083-0.0011378
           dy  0.0256316-0.0214801 0.0388352 0.0001037 0.0009348-0.0006194
           dz  0.0047429-0.0012747-0.0010705-0.0001131 0.0005509 0.0002439
  21 h     dx  0.0001907-0.0010090-0.0002074 0.0003577 0.0002013-0.0000697
           dy  0.0003856-0.0009500-0.0002261-0.0001730-0.0002669-0.0000523
           dz  0.0000639-0.0004189-0.0002748 0.0007959 0.0004695 0.0000774
  22 h     dx  0.0002280 0.0005816 0.0001423 0.0000871 0.0000534 0.0000701
           dy  0.0001495 0.0008346 0.0000083-0.0002916-0.0001118-0.0000368
           dz  0.0000180 0.0001790 0.0000566 0.0002833 0.0001321 0.0001012
  23 h     dx -0.0005451-0.0001421 0.0006467 0.0004454 0.0002048 0.0003663
           dy -0.0003758-0.0005528 0.0002142-0.0002868-0.0002046-0.0002544
           dz  0.0000063-0.0003964 0.0000402 0.0003746 0.0001781 0.0002369

   ATOM             11 c                          12 c 
                  dx        dy        dz        dx        dy        dz
  11 c     dx  0.4359804
           dy -0.0104451 0.4182941
           dz -0.2431387-0.1584659 0.4242187
  12 c     dx -0.0003399 0.0016504-0.0017817 0.3960651
           dy -0.0017356-0.0005845-0.0006198 0.0604571 0.7438046
           dz  0.0048649 0.0031018 0.0027595 0.1926616-0.2517526 0.5089269
  13 c     dx -0.1172908-0.0468506 0.0715803-0.0004402-0.0005713 0.0002260
           dy -0.0683811-0.2221771 0.1525372-0.0007977 0.0026234-0.0020969
           dz  0.0870458 0.1343366-0.2115216 0.0005045-0.0010572 0.0022356
  14 c     dx -0.0265029 0.0227534 0.0188643-0.0007875 0.0001382-0.0007746
           dy  0.0001444-0.0111380 0.0153230 0.0007546-0.0009496 0.0017176
           dz  0.0313962-0.0078025-0.0154414 0.0002396 0.0000139-0.0000588
  15 c     dx  0.0001266 0.0002807 0.0001741-0.0051554-0.0051539 0.0061570
           dy  0.0001215-0.0004451-0.0001581 0.0155764-0.0414350 0.0358991
           dz -0.0001729 0.0003108-0.0000508-0.0038457 0.0159305-0.0224460
  16 h     dx  0.0024379-0.0120054 0.0268450-0.0016749-0.0049606-0.0012719
           dy  0.0001484 0.0024292-0.0063109-0.0015166-0.0039423 0.0000731
           dz  0.0018043 0.0089825-0.0172781-0.0002543-0.0027025 0.0006638
  17 h     dx -0.0091432 0.0255280 0.0035090 0.0016661-0.0028169 0.0023547
           dy  0.0045438-0.0042147-0.0008235 0.0006485-0.0012964 0.0021981
           dz  0.0076197-0.0201074-0.0019997 0.0001855-0.0029254 0.0015230
  18 h     dx  0.0000893-0.0014301-0.0004538 0.0078369 0.0188707 0.0107490
           dy -0.0004529 0.0009510 0.0005473 0.0069684-0.0093248 0.0064985
           dz  0.0003698 0.0006100-0.0001247 0.0086462 0.0328651-0.0045613
  19 h     dx  0.0078609-0.0092711 0.0036016-0.0000569-0.0014657 0.0010020
           dy  0.0084595-0.0108323 0.0027446-0.0001959-0.0012648 0.0006858
           dz -0.0064678 0.0179028 0.0008240 0.0001528-0.0001309 0.0003054
  20 h     dx  0.0001897 0.0000561 0.0000608-0.0112725 0.0099297-0.0158229
           dy -0.0000134-0.0000674-0.0000896-0.0033455 0.0186108-0.0154988
           dz -0.0001015-0.0000392 0.0000126-0.0014628-0.0004262-0.0066226
  21 h     dx  0.0000196-0.0000623-0.0000342 0.0003958-0.0048335 0.0002739
           dy  0.0000786 0.0000701 0.0000094-0.0011204 0.0019468 0.0019192
           dz  0.0000724-0.0001956-0.0000609-0.0036251-0.0104340 0.0021874
  22 h     dx  0.0000460-0.0000133-0.0000314-0.0006723 0.0028831-0.0032762
           dy -0.0000282 0.0000652 0.0000278 0.0002094 0.0001392 0.0009551
           dz -0.0000089-0.0000626-0.0000181-0.0016743 0.0026992-0.0031214
  23 h     dx  0.0000273-0.0001628-0.0000130-0.0021812-0.0085014 0.0019008
           dy -0.0000338 0.0000978 0.0000006 0.0031217 0.0036369-0.0008453
           dz  0.0000522-0.0000712-0.0000017-0.0041948-0.0042023 0.0035886

   ATOM             13 c                          14 c 
                  dx        dy        dz        dx        dy        dz
  13 c     dx  0.4452179
           dy -0.1562693 0.7048373
           dz -0.1647702-0.2026309 0.3989473
  14 c     dx -0.0388214 0.0421851 0.0135341 0.3475173
           dy  0.0783991-0.0559290-0.0323879-0.1815217 0.5401006
           dz -0.0073554-0.0002901 0.0131960-0.1087354-0.1015560 0.2484267
  15 c     dx -0.0001384 0.0003102 0.0000824-0.0001982 0.0000958 0.0001507
           dy -0.0001239 0.0001524-0.0001400 0.0002469-0.0000400-0.0001675
           dz -0.0000806-0.0000251 0.0000732-0.0002641 0.0000328 0.0002063
  16 h     dx -0.0013277 0.0029252 0.0012016-0.0002883-0.0017540 0.0007429
           dy  0.0004233-0.0001395 0.0002506 0.0001689 0.0001812-0.0001359
           dz  0.0013317-0.0022729-0.0006564 0.0005161 0.0010647-0.0007689
  17 h     dx  0.0002692 0.0000757-0.0013197-0.0001573 0.0014832-0.0004248
           dy -0.0013782 0.0010977 0.0006436-0.0000863-0.0001154 0.0002610
           dz -0.0002099-0.0002680 0.0007815 0.0005741-0.0005586 0.0000377
  18 h     dx -0.0003736 0.0001439 0.0006246-0.0005564 0.0000698 0.0009336
           dy -0.0001258-0.0000669-0.0000131-0.0000413 0.0003323-0.0002723
           dz  0.0000252 0.0000119-0.0002341-0.0000114 0.0000353-0.0002316
  19 h     dx -0.0892560 0.1052117-0.0157825-0.0021694 0.0021340 0.0030031
           dy  0.1059577-0.2857801 0.0621555 0.0008098 0.0017120 0.0000833
           dz -0.0179615 0.0652781-0.0595159 0.0039162-0.0007526-0.0001365
  20 h     dx  0.0000332 0.0000323-0.0000153-0.0000693 0.0000140 0.0000371
           dy -0.0000139 0.0001107-0.0000709 0.0000483-0.0000429-0.0000213
           dz  0.0000025 0.0000124-0.0000093-0.0000418-0.0000332 0.0000796
  21 h     dx -0.0000120 0.0000139-0.0000432 0.0000012 0.0000455-0.0000512
           dy  0.0000305-0.0000453 0.0000435 0.0000056 0.0000344-0.0000286
           dz  0.0000517 0.0000416-0.0000459 0.0000848-0.0000395-0.0000810
  22 h     dx -0.0000231 0.0001538 0.0000174-0.0000418 0.0000182 0.0000171
           dy  0.0000681-0.0000970 0.0000312-0.0000310-0.0000331 0.0000495
           dz -0.0000441 0.0000731-0.0000401 0.0000253-0.0000249-0.0000080
  23 h     dx  0.0000295-0.0000025-0.0000440 0.0001237-0.0000792-0.0000510
           dy  0.0000388-0.0000725 0.0000064-0.0000351 0.0000241 0.0000074
           dz -0.0000252 0.0000846-0.0000100 0.0000391 0.0000205-0.0000416

   ATOM             15 c                          16 h 
                  dx        dy        dz        dx        dy        dz
  15 c     dx  0.5118108
           dy  0.0293786 0.5682906
           dz -0.0393614 0.0057735 0.4871179
  16 h     dx  0.0001108-0.0001499 0.0001464 0.0686666
           dy -0.0001285 0.0004486 0.0000930-0.0131816 0.0901472
           dz  0.0000330-0.0000154 0.0000265 0.0416481-0.0978521 0.2892457
  17 h     dx -0.0002889 0.0002976 0.0003594-0.0008724 0.0036965 0.0006606
           dy  0.0005250 0.0000723-0.0001807 0.0021610-0.0087870-0.0000470
           dz -0.0003802 0.0005621 0.0002547-0.0052504 0.0284723 0.0046339
  18 h     dx  0.0022303-0.0010179-0.0011610 0.0008711 0.0005643 0.0000056
           dy -0.0007795 0.0005325 0.0008903 0.0002365 0.0005333-0.0002397
           dz -0.0010478 0.0012004 0.0006334 0.0003644-0.0000716 0.0001673
  19 h     dx -0.0003490 0.0000460-0.0001769 0.0000999 0.0002121-0.0001087
           dy -0.0001587 0.0003193-0.0001775 0.0000456 0.0002247-0.0000527
           dz -0.0000763-0.0001477 0.0001738 0.0000412-0.0001014-0.0000098
  20 h     dx  0.0015183-0.0014759-0.0014281-0.0002911-0.0002124-0.0000917
           dy -0.0023815 0.0007300-0.0019579-0.0003220-0.0001738-0.0001423
           dz -0.0003514 0.0005651 0.0032455-0.0000287-0.0000012 0.0000103
  21 h     dx -0.0495748 0.0117085 0.0179793-0.0000679 0.0000835-0.0000056
           dy  0.0123361-0.1305796-0.1105646 0.0000094-0.0000303 0.0000000
           dz  0.0170196-0.1115827-0.2017885-0.0000989 0.0001365-0.0000010
  22 h     dx -0.0912572-0.1017224 0.0249630-0.0000205-0.0000125 0.0000026
           dy -0.0962428-0.2590369 0.0460616 0.0000573-0.0000159 0.0000061
           dz  0.0212826 0.0407434-0.0540802-0.0000338-0.0000117-0.0000118
  23 h     dx -0.2669951 0.0269496 0.0601779-0.0000448 0.0000296-0.0000230
           dy  0.0275599-0.0528989-0.0070821 0.0000232 0.0000068 0.0000017
           dz  0.0596628-0.0075553-0.0636168-0.0000429-0.0000180-0.0000145

   ATOM             17 h                          18 h 
                  dx        dy        dz        dx        dy        dz
  17 h     dx  0.0724700
           dy -0.0511926 0.3286162
           dz -0.0064403 0.0257029 0.0504901
  18 h     dx -0.0026530-0.0003934-0.0012366 0.0488629
           dy -0.0003445 0.0009730-0.0002884 0.0398728 0.4450263
           dz -0.0035734-0.0024786-0.0012606 0.0235467-0.0711223 0.0511496
  19 h     dx  0.0002538 0.0001533 0.0000749-0.0001278 0.0000103 0.0000353
           dy -0.0003625 0.0000077 0.0003750-0.0000202-0.0000452 0.0000034
           dz  0.0004811-0.0004870-0.0002462-0.0001423 0.0000716-0.0000229
  20 h     dx -0.0000250-0.0000167-0.0000412-0.0003273-0.0003434 0.0002526
           dy -0.0000325-0.0000277-0.0000023 0.0001366-0.0006051 0.0000395
           dz  0.0000573 0.0000263 0.0000337 0.0001740-0.0001919-0.0003040
  21 h     dx  0.0000839-0.0000410 0.0001530-0.0002943 0.0001040 0.0001151
           dy -0.0000465 0.0000523-0.0000409 0.0003859-0.0000385-0.0000861
           dz  0.0001427-0.0000797 0.0002532-0.0008346-0.0001663 0.0000911
  22 h     dx  0.0000082-0.0000378-0.0000077-0.0001404-0.0000568-0.0001554
           dy  0.0000126-0.0000180-0.0000367 0.0000796 0.0000458 0.0000720
           dz -0.0000299-0.0000077-0.0000167-0.0003383-0.0000719-0.0001689
  23 h     dx -0.0000943 0.0000604-0.0000032-0.0001301-0.0003580-0.0001974
           dy  0.0000304-0.0000222 0.0000343 0.0000539 0.0002928 0.0001951
           dz -0.0001313 0.0001031-0.0000645 0.0002036-0.0003068-0.0002711

   ATOM             19 h                          20 h 
                  dx        dy        dz        dx        dy        dz
  19 h     dx  0.0942219
           dy -0.1193150 0.2984862
           dz  0.0117037-0.0657137 0.0549980
  20 h     dx -0.0000278-0.0000195-0.0000221 0.1384536
           dy -0.0000217 0.0000014-0.0000267-0.0661776 0.1300019
           dz -0.0000115-0.0000149 0.0000122 0.1821577-0.1258225 0.2852897
  21 h     dx  0.0000163 0.0000073-0.0000504-0.0001240-0.0007559 0.0006757
           dy  0.0000287-0.0000326-0.0000329-0.0003554-0.0005458 0.0005098
           dz  0.0000468 0.0000317-0.0000729 0.0016039 0.0017509-0.0017751
  22 h     dx -0.0000704-0.0000340-0.0000597-0.0003279 0.0007599 0.0005300
           dy  0.0000237-0.0000570 0.0000956 0.0005904-0.0000609-0.0002036
           dz -0.0000313 0.0000617 0.0000081 0.0007545 0.0003672-0.0006451
  23 h     dx  0.0000777 0.0000563 0.0000017-0.0003882 0.0014156 0.0004199
           dy  0.0000258-0.0000427 0.0000587 0.0006653-0.0020765-0.0000942
           dz -0.0000146 0.0000238-0.0000737 0.0001033 0.0000264 0.0001273

   ATOM             21 h                          22 h 
                  dx        dy        dz        dx        dy        dz
  21 h     dx  0.0493623
           dy -0.0133289 0.1378933
           dz -0.0131684 0.1207581 0.2306427
  22 h     dx  0.0017904 0.0039822-0.0003317 0.0973543
           dy -0.0084445-0.0170070 0.0017974 0.1012526 0.2818833
           dz -0.0114164-0.0240443 0.0054824-0.0179681-0.0567439 0.0672375
  23 h     dx -0.0008861-0.0001368 0.0018337-0.0135223 0.0011379 0.0051803
           dy  0.0187243-0.0020442-0.0052825-0.0282476 0.0050696 0.0078531
           dz  0.0250275-0.0018586-0.0054269 0.0053499-0.0013431-0.0013519

   ATOM             23 h 
                  dx        dy        dz
  23 h     dx  0.2972992
           dy -0.0355307 0.0542365
           dz -0.0588859 0.0039594 0.0673784
 

   *** projected hessian written onto $hessian (projected), file=<hessian> ***

 dipole moment in principle axis system (a.u.) :
    -0.6570874978     0.6790600632     0.4846461788
 norm :   1.06196443813930     

 rotational constants b for rotations around axis of inertia
 and optical intensities for (1 <-- 0) transition

   b   :     0.0261142590     0.0078942366     0.0071809974   (cm**(-1))
   b   :         782.8858         236.6633         215.2809     (MHz)
  int. :     0.4317639797     0.4611225695     0.2348819187     (a.u.)

   x   :     1.0000000000     0.0000000000     0.0000000000
   y   :     0.0000000000     1.0000000000     0.0000000000
   z   :     0.0000000000     0.0000000000     1.0000000000

   ***  normal modes written onto $vibrational normal modes, file=<vib_normal_modes>  ***

 keyword $vibrational reduced masses missing in file <control>


   ***  vibrational spectroscopic data written onto$vibrational spectrum   
        file=<vibspectrum>  ***

          ---------------------------------------------------
          NORMAL MODES and VIBRATIONAL FREQUENCIES (cm**(-1))
          ---------------------------------------------------

 imaginary wave numbers indicate a negative curvature of the energy surface.
 zero frequency modes have no physical meaning except being generators of
 translations and rotations. each vibrational normal mode - given in terms of
 cartesian displacement vectors of all atoms - has been normalized to unity.
 to obtain mass-weigthed normal coordinates in a.u. divide the tabulated
 modes by sqrt(reduced mass * 1822.88853).
 band intensities or cross sections refer to independent non-degenerate normal
 modes, that is, the intensities of degenerate modes have yet to be added.
 dDIP/dQ is the normal mode derivative of the dipole moment.


       mode               1        2        3        4        5        6

     frequency           0.00     0.00     0.00     0.00     0.00     0.00

     symmetry                                                             

        IR                -        -        -        -        -        - 
|dDIP/dQ|   (a.u.)     0.0000   0.0000   0.0000   0.0000   0.0000   0.0000
intensity (km/mol)       0.00     0.00     0.00     0.00     0.00     0.00
intensity (  %   )       0.00     0.00     0.00     0.00     0.00     0.00
 
       RAMAN              -        -        -        -        -        - 
 
  1   cl          x   0.16918  0.04212  0.12388 -0.01284 -0.05424 -0.02747
                  y   0.12560  0.03627 -0.05373  0.27553 -0.24293  0.06598
                  z   0.00639  0.29779  0.09228  0.13991  0.19017 -0.11642
  2   s           x   0.14791  0.02380  0.07992 -0.10023 -0.11682  0.02775
                  y  -0.01466  0.13029 -0.04216  0.09518 -0.23601 -0.06666
                  z  -0.00902  0.26838  0.03778  0.04683  0.11331 -0.03911
  3   o           x   0.21730  0.05643  0.09901  0.02413 -0.06973 -0.03282
                  y  -0.27073 -0.08436  0.20445  0.03936 -0.05176  0.07883
                  z  -0.07163  0.28939 -0.14928 -0.28133 -0.12094  0.05736
  4   o           x   0.21567  0.04536  0.05140 -0.03975 -0.13040  0.01395
                  y  -0.22665  0.03959  0.11122 -0.01261 -0.12212 -0.03351
                  z  -0.06414  0.31624 -0.11973 -0.23165 -0.07664  0.00035
  5   n           x   0.09945  0.00837  0.10033 -0.14346 -0.10708  0.03760
                  y  -0.18154  0.10848  0.04964 -0.02478 -0.16839 -0.09033
                  z  -0.02000  0.17661 -0.01829 -0.04454  0.01935  0.12560
  6   n           x   0.12486  0.02610  0.13375 -0.06374 -0.05644 -0.01000
                  y  -0.23701 -0.02057  0.15124  0.02156 -0.09180  0.02403
                  z  -0.03686  0.17977 -0.06930 -0.13385 -0.04515  0.15548
  7   n           x   0.06983  0.01329  0.17846 -0.08500 -0.01819 -0.01952
                  y   0.04008  0.03203 -0.01074  0.20914 -0.21136  0.04689
                  z   0.02450  0.15050  0.11192  0.18471  0.17963  0.07436
  8   n           x   0.02954 -0.00072  0.18999 -0.12797 -0.01696 -0.00610
                  y  -0.17846  0.00471  0.10875  0.05118 -0.12336  0.01465
                  z   0.00275  0.06215  0.02362  0.03681  0.04526  0.25597
  9   n           x   0.19038  0.04381  0.09180 -0.02386 -0.08775 -0.00951
                  y  -0.24468 -0.02147  0.15540  0.01599 -0.08874  0.02284
                  z  -0.05894  0.26792 -0.11555 -0.22090 -0.08299  0.06446
 10   c           x   0.06430 -0.00463  0.10684 -0.18555 -0.11049  0.05273
                  y  -0.13248  0.15803 -0.00253 -0.02005 -0.20743 -0.12666
                  z  -0.00104  0.14438  0.03203  0.04564  0.07594  0.13647
 11   c           x   0.07879  0.00500  0.12370 -0.14293 -0.08440  0.02770
                  y  -0.06121  0.11750 -0.01264  0.06647 -0.21417 -0.06653
                  z   0.00562  0.16571  0.05769  0.08892  0.11393  0.08970
 12   c           x   0.08218  0.01074  0.14357 -0.11235 -0.05817  0.00652
                  y  -0.19623  0.03007  0.10236  0.01881 -0.12846 -0.01565
                  z  -0.01682  0.13640 -0.01835 -0.04178  0.00954  0.18133
 13   c           x   0.04462  0.00182  0.17329 -0.12789 -0.03307  0.00079
                  y  -0.02343  0.06336  0.00106  0.13544 -0.20323 -0.00189
                  z   0.02248  0.11383  0.09677  0.16087  0.15137  0.13531
 14   c           x   0.12324  0.02534  0.13331 -0.06664 -0.05754 -0.00859
                  y   0.05119  0.06121 -0.03303  0.19750 -0.22818  0.02064
                  z   0.00925  0.23025  0.08457  0.13125  0.16394 -0.01771
 15   c           x   0.01108  0.00155  0.23503 -0.09626  0.03382 -0.03819
                  y  -0.19704 -0.07716  0.16534  0.09405 -0.08054  0.09172
                  z   0.00569  0.01916  0.02215  0.03731  0.03297  0.31650
 16   h           x   0.07589 -0.00804  0.06945 -0.21724 -0.15388  0.08164
                  y  -0.13941  0.22534 -0.03854 -0.07332 -0.23493 -0.19609
                  z  -0.00583  0.17196  0.02407  0.02976  0.07243  0.10361
 17   h           x   0.01270 -0.01933  0.13644 -0.22140 -0.09018  0.05565
                  y  -0.14391  0.16190  0.00063 -0.03207 -0.20518 -0.13367
                  z   0.01358  0.07328  0.05957  0.09880  0.09396  0.21643
 18   h           x   0.14592  0.02014  0.06693 -0.11989 -0.13389  0.04146
                  y  -0.18847  0.11582  0.04863 -0.03560 -0.16924 -0.09959
                  z  -0.03589  0.24044 -0.05150 -0.10708 -0.00768  0.05950
 19   h           x   0.00024 -0.00884  0.20785 -0.14697 -0.00410 -0.00545
                  y  -0.04103  0.04365  0.02091  0.13511 -0.18836  0.01309
                  z   0.03383  0.04733  0.11538  0.19811  0.15908  0.21490
 20   h           x   0.11251  0.02789  0.16514 -0.04089 -0.02088 -0.03268
                  y  -0.24925 -0.07818  0.19067  0.05241 -0.06196  0.07850
                  z  -0.03487  0.15049 -0.07032 -0.13353 -0.05354  0.19670
 21   h           x   0.04702  0.01733  0.23978 -0.03849  0.05171 -0.06461
                  y  -0.18009 -0.13581  0.19154  0.14932 -0.06037  0.15520
                  z  -0.00307  0.05930  0.00504  0.00457  0.02081  0.27240
 22   h           x  -0.03375 -0.00906  0.27067 -0.11459  0.06399 -0.04518
                  y  -0.17350 -0.08750  0.16022  0.12048 -0.08412  0.10853
                  z   0.02369 -0.04086  0.06276  0.11251  0.07040  0.37235
 23   h           x   0.00197 -0.00247  0.23374 -0.11101  0.02917 -0.03140
                  y  -0.25134 -0.07569  0.19020  0.04895 -0.06234  0.07542
                  z   0.00000  0.00000  0.00000  0.00000  0.00000  0.35789

reduced mass(g/mol)    11.473   14.295    8.663   12.099   13.400    6.057


       mode               7        8        9       10       11       12

     frequency          21.99    27.18    51.25    57.95    76.90   108.49

     symmetry            a        a        a        a        a        a   

        IR               YES      YES      YES      YES      YES      YES
|dDIP/dQ|   (a.u.)     0.0003   0.0005   0.0006   0.0004   0.0010   0.0012
intensity (km/mol)       0.14     0.45     0.62     0.25     1.63     2.39
intensity (  %   )       0.03     0.11     0.15     0.06     0.40     0.59
 
       RAMAN             YES      YES      YES      YES      YES      YES
 
  1   cl          x   0.26756  0.06463  0.04122 -0.08311 -0.08427  0.09548
                  y   0.16013 -0.05241 -0.07319  0.03594 -0.05997  0.07661
                  z   0.10031  0.07784  0.07425 -0.04617 -0.04155  0.10596
  2   s           x   0.15668  0.12853 -0.10717  0.03548  0.02352 -0.11573
                  y  -0.01557  0.07124 -0.04422  0.04661  0.05132 -0.09516
                  z  -0.01940  0.14541 -0.11711  0.10048  0.07309 -0.13468
  3   o           x  -0.47757  0.01783 -0.15131 -0.27006 -0.10274 -0.01069
                  y   0.11163  0.04152 -0.01272  0.09103 -0.04411 -0.02897
                  z   0.18899 -0.06383  0.17071  0.18856  0.09431  0.13477
  4   o           x  -0.34419  0.12188  0.27059  0.24510 -0.02295  0.10467
                  y  -0.00746 -0.01146 -0.04209 -0.06553 -0.01208  0.04470
                  z   0.05529 -0.16376 -0.20825 -0.28822  0.02916  0.04006
  5   n           x   0.03160  0.00540  0.02394 -0.02076  0.07256 -0.09199
                  y  -0.14833  0.00272  0.04025 -0.01453 -0.04898  0.06344
                  z  -0.15077 -0.01155 -0.05090  0.06378 -0.10532  0.10165
  6   n           x  -0.07930 -0.06288 -0.08059  0.04235  0.22975  0.17351
                  y   0.00338  0.03445 -0.01022 -0.00141 -0.07927 -0.01651
                  z  -0.06193  0.05387  0.07698  0.00453 -0.26494 -0.14418
  7   n           x   0.08327 -0.11141  0.20413 -0.13020  0.00876 -0.08806
                  y   0.02000 -0.15953  0.06101 -0.00944  0.01239 -0.05554
                  z  -0.00542 -0.21166  0.12324 -0.02776  0.02272 -0.07920
  8   n           x   0.03201 -0.11865 -0.12015  0.13951 -0.04406 -0.03823
                  y  -0.07599  0.06836  0.02786 -0.06202  0.05669  0.09694
                  z  -0.06615  0.09350 -0.03159 -0.04057  0.04414  0.12100
  9   n           x  -0.31932  0.03260  0.01763 -0.00298  0.01292  0.07564
                  y   0.03889  0.02010 -0.02085  0.01025 -0.03658  0.00793
                  z   0.07191 -0.06731  0.00700 -0.03268 -0.02258  0.02886
 10   c           x   0.01385  0.01641  0.01080 -0.02048 -0.00868 -0.00986
                  y  -0.16148  0.01173  0.09021 -0.02458  0.01779 -0.01962
                  z  -0.10171 -0.04378 -0.08836  0.08859  0.00115  0.01554
 11   c           x   0.04218 -0.00150  0.02927 -0.02355  0.04153 -0.09813
                  y  -0.09313 -0.01714  0.04817  0.00570  0.06231 -0.08185
                  z  -0.07680 -0.06503 -0.05151  0.07967  0.06720 -0.09615
 12   c           x  -0.00705 -0.05857 -0.05111  0.06649  0.06910 -0.00336
                  y  -0.07805  0.03712  0.02000 -0.03373 -0.01629  0.06103
                  z  -0.08779  0.04278 -0.01827 -0.00588 -0.08634  0.04137
 13   c           x   0.01774 -0.11718  0.18203 -0.10549  0.03478 -0.10727
                  y  -0.06129 -0.13323  0.09226 -0.01771  0.04433 -0.07777
                  z  -0.06073 -0.23614  0.07242  0.01367  0.04704 -0.09758
 14   c           x   0.16074  0.01073  0.06465 -0.06643 -0.00874 -0.06637
                  y   0.05208 -0.06204 -0.00797  0.02044  0.00776 -0.04560
                  z   0.02247 -0.02074  0.03764  0.00653  0.02422 -0.06883
 15   c           x  -0.02259 -0.19906 -0.22921  0.25426 -0.09324  0.10695
                  y   0.00276  0.10689  0.00995 -0.09189  0.09147  0.05666
                  z   0.01017  0.16654  0.03180 -0.13276  0.09437  0.00338
 16   h           x   0.00227  0.03665  0.00516 -0.02415 -0.05965  0.05461
                  y  -0.20747  0.03386  0.16557 -0.05867  0.02043 -0.05332
                  z  -0.11811 -0.03874 -0.05597  0.07504  0.01105 -0.00978
 17   h           x  -0.00464  0.01245 -0.00414 -0.02663 -0.07503  0.07170
                  y  -0.16931  0.01193  0.09448 -0.02951  0.00528 -0.00891
                  z  -0.05231 -0.06347 -0.17031  0.12574 -0.01318  0.06125
 18   h           x  -0.02297  0.06818  0.11045  0.04420  0.15100 -0.04494
                  y  -0.14076 -0.01412  0.02503 -0.03310 -0.06815  0.04453
                  z  -0.14472 -0.08421 -0.09353 -0.01313 -0.18607  0.00972
 19   h           x  -0.04701 -0.20898  0.29340 -0.15997  0.04026 -0.10104
                  y  -0.09631 -0.20729  0.15754 -0.04925  0.04432 -0.07035
                  z  -0.08528 -0.38025  0.13318 -0.01276  0.03529 -0.07638
 20   h           x  -0.11188 -0.11866 -0.25824 -0.13726  0.18186  0.10970
                  y   0.04412  0.06769  0.01861  0.08239 -0.08245 -0.02699
                  z  -0.01991  0.10584  0.20632  0.16327 -0.23266 -0.10552
 21   h           x  -0.06513 -0.23944 -0.32991  0.21043  0.19372  0.54619
                  y   0.06454  0.15580 -0.00904 -0.20249  0.31380  0.20051
                  z  -0.03391  0.13116  0.03815 -0.06007 -0.03294 -0.05906
 22   h           x  -0.03235 -0.23809 -0.24888  0.38263 -0.35729 -0.10485
                  y   0.01841  0.12991  0.00320 -0.16818  0.26990  0.21226
                  z   0.05665  0.19232 -0.02870 -0.22059  0.36188  0.26807
 23   h           x  -0.01235 -0.18837 -0.20351  0.26490 -0.16816 -0.00744
                  y  -0.01092  0.06886  0.02249  0.06882 -0.27477 -0.27527
                  z   0.06826  0.23904  0.14134 -0.18697  0.00362 -0.28630

reduced mass(g/mol)    14.976    7.141    7.521    7.816    4.703    6.210


       mode              13       14       15       16       17       18

     frequency         136.30   146.21   190.70   207.62   246.12   270.06

     symmetry            a        a        a        a        a        a   

        IR               YES      YES      YES      YES      YES      YES
|dDIP/dQ|   (a.u.)     0.0005   0.0007   0.0019   0.0016   0.0017   0.0007
intensity (km/mol)       0.51     0.79     6.39     4.48     4.98     0.85
intensity (  %   )       0.13     0.19     1.58     1.11     1.23     0.21
 
       RAMAN             YES      YES      YES      YES      YES      YES
 
  1   cl          x  -0.00253  0.03704  0.02059 -0.01672  0.06624 -0.03028
                  y   0.00067  0.09227 -0.03976 -0.04332  0.07788 -0.06024
                  z   0.02307 -0.12918 -0.04756 -0.03552 -0.09603 -0.03126
  2   s           x  -0.02389  0.09570  0.05591  0.04577 -0.07263  0.05683
                  y   0.00535 -0.15049  0.02607  0.04133 -0.04619  0.03550
                  z  -0.01501  0.09201  0.01145  0.02066  0.08159 -0.01366
  3   o           x  -0.00312  0.04561 -0.06189  0.01825 -0.04047 -0.00874
                  y  -0.03228 -0.06550  0.04125 -0.16552 -0.01790  0.02391
                  z   0.02492  0.10091 -0.05006  0.05012 -0.03759  0.00965
  4   o           x   0.00113  0.11483 -0.08464  0.05868 -0.05054  0.01943
                  y  -0.00486  0.12645 -0.05954  0.02072 -0.08457  0.05101
                  z   0.02301  0.05583 -0.03126  0.01989 -0.03104 -0.00580
  5   n           x   0.00553 -0.08945 -0.06507 -0.09097 -0.03005 -0.24367
                  y  -0.01669  0.12170  0.05805 -0.03443  0.08227  0.09842
                  z  -0.01643 -0.07776  0.12388 -0.05137  0.10093  0.25056
  6   n           x   0.04767 -0.01032  0.10618 -0.15991  0.00551  0.07762
                  y  -0.02339  0.04704 -0.05236 -0.01145 -0.05127  0.00781
                  z  -0.05460 -0.07984 -0.08883  0.02180  0.00299 -0.09782
  7   n           x  -0.01413 -0.04179  0.08985  0.07906  0.03291  0.10624
                  y   0.00014 -0.06947  0.02130  0.04677 -0.10742  0.09870
                  z  -0.01615  0.11009  0.02706  0.05024  0.02647  0.09926
  8   n           x   0.01706 -0.11877 -0.24679 -0.05063  0.05400  0.18637
                  y   0.00139  0.13317  0.10266  0.01053 -0.06918 -0.10506
                  z   0.01265 -0.12655  0.21564  0.05751 -0.02688 -0.12149
  9   n           x   0.01316  0.05351 -0.02319 -0.02129 -0.03078  0.01832
                  y  -0.01910  0.04380 -0.02273 -0.05245 -0.06059  0.03123
                  z   0.00129  0.03112 -0.04819  0.02262 -0.02027 -0.02044
 10   c           x  -0.00777 -0.04289  0.01793 -0.06809 -0.03236 -0.03725
                  y  -0.00310 -0.06617  0.04728 -0.05732  0.24589 -0.05046
                  z  -0.00668  0.03206 -0.00323 -0.08293 -0.05765 -0.00223
 11   c           x  -0.01232  0.01223  0.00146 -0.04755 -0.00979 -0.15395
                  y   0.01042 -0.18161 -0.00036 -0.02092  0.02355 -0.10397
                  z  -0.01258  0.12654 -0.04586 -0.07970  0.00927 -0.18634
 12   c           x   0.01651 -0.05808 -0.09842 -0.12408  0.00118  0.02406
                  y  -0.01025  0.13467  0.03805  0.00605 -0.04425 -0.02512
                  z  -0.02037 -0.09105  0.12343 -0.01199  0.00413  0.00413
 13   c           x  -0.01390 -0.03337  0.05578  0.01123  0.05056 -0.07116
                  y   0.00581 -0.14240  0.00923  0.00733 -0.04225 -0.03674
                  z  -0.01776  0.14590 -0.01429 -0.02646 -0.01294 -0.08874
 14   c           x  -0.01756  0.02882  0.08445  0.08119  0.00580  0.15021
                  y   0.00088 -0.06144  0.01951  0.04938 -0.10421  0.11877
                  z  -0.01010  0.05870  0.02854  0.05961  0.04298  0.12756
 15   c           x   0.02043 -0.16359  0.04052  0.21368  0.04583 -0.11515
                  y   0.07680  0.05199 -0.13509  0.22237  0.08609 -0.05100
                  z   0.05404 -0.14851 -0.09693  0.00323  0.07231  0.10499
 16   h           x  -0.00131 -0.19576  0.07178 -0.04392 -0.05870  0.12086
                  y  -0.01012 -0.10827  0.09526 -0.08762  0.58539 -0.11237
                  z  -0.01063  0.04153  0.00630 -0.09883  0.08296 -0.05536
 17   h           x  -0.02133  0.11090  0.05074 -0.06250 -0.05622  0.09431
                  y  -0.00684 -0.03478  0.05492 -0.06097  0.27463 -0.03467
                  z   0.00130  0.04081 -0.03582 -0.04198 -0.43645  0.09679
 18   h           x   0.02459 -0.19570 -0.02639 -0.12403  0.11040 -0.14053
                  y  -0.02096  0.13092  0.04971 -0.02698  0.07115  0.06703
                  z  -0.03417 -0.08670  0.10154 -0.03844  0.13760  0.13762
 19   h           x  -0.01021 -0.09040  0.07946  0.00857  0.09643 -0.10925
                  y   0.00688 -0.15896  0.02119  0.00176 -0.02989 -0.06185
                  z  -0.01976  0.18401 -0.01538 -0.04678 -0.05159 -0.12125
 20   h           x   0.03847 -0.05941  0.00054 -0.15044  0.04415  0.17194
                  y  -0.03046 -0.02403  0.01263 -0.05637 -0.04231 -0.01209
                  z  -0.05178 -0.08194  0.01476 -0.00979 -0.01899 -0.16695
 21   h           x  -0.48323 -0.38077  0.04559  0.41369  0.01787 -0.31853
                  y  -0.12762 -0.10939 -0.46919  0.37146  0.22041  0.06301
                  z   0.15105 -0.05769  0.12491 -0.07974 -0.01912  0.01268
 22   h           x   0.39313 -0.04176  0.28184  0.30478  0.04990 -0.26161
                  y  -0.15699 -0.05506 -0.30822  0.25328  0.11925  0.00862
                  z  -0.25274 -0.37043 -0.38149  0.27624  0.20942  0.10052
 23   h           x   0.15173 -0.10588  0.03940  0.16082  0.05243 -0.06108
                  y   0.58300  0.25247  0.17218  0.21777  0.05897 -0.16929
                  z   0.29984 -0.02781 -0.30594 -0.23292  0.11875  0.42344

reduced mass(g/mol)     1.314    7.408    4.646    4.169    4.043    6.382


       mode              19       20       21       22       23       24

     frequency         302.71   337.31   351.03   424.99   469.33   506.12

     symmetry            a        a        a        a        a        a   

        IR               YES      YES      YES      YES      YES      YES
|dDIP/dQ|   (a.u.)     0.0019   0.0009   0.0012   0.0026   0.0017   0.0025
intensity (km/mol)       6.16     1.58     2.42    11.64     4.85    10.91
intensity (  %   )       1.53     0.39     0.60     2.88     1.20     2.70
 
       RAMAN             YES      YES      YES      YES      YES      YES
 
  1   cl          x   0.02093  0.05096  0.15628 -0.18738 -0.08155  0.00771
                  y   0.05795  0.01212 -0.06452  0.14474  0.08728 -0.00355
                  z  -0.08668 -0.05519 -0.03782  0.07385  0.05823  0.00097
  2   s           x  -0.14850 -0.11036 -0.00528  0.01128  0.08718  0.01414
                  y   0.02284  0.05823  0.09233 -0.08225  0.01059  0.00680
                  z   0.10446  0.05780 -0.00677  0.03899  0.06780  0.01337
  3   o           x   0.05583  0.00333 -0.05002 -0.07161  0.05521 -0.01497
                  y   0.03002  0.03704 -0.19460 -0.20893  0.17107 -0.16686
                  z   0.04427 -0.00077 -0.01117 -0.03811  0.03287  0.02954
  4   o           x   0.09374 -0.03088  0.03429 -0.01953  0.02772 -0.06115
                  y   0.24601 -0.13684  0.23811  0.13166 -0.08096 -0.13554
                  z   0.04201  0.00021 -0.03448 -0.05047  0.04208 -0.05207
  5   n           x   0.06561 -0.01423 -0.14075  0.10393 -0.21545 -0.04274
                  y  -0.23001  0.04520  0.02964  0.11980 -0.06318  0.07628
                  z  -0.12190 -0.00722  0.14446  0.07275  0.04993 -0.11320
  6   n           x  -0.02236  0.03684 -0.11777 -0.06716  0.04542 -0.07163
                  y   0.09421 -0.02465  0.02157 -0.00981 -0.00131  0.10296
                  z  -0.05779  0.05552 -0.14690 -0.05351 -0.01386  0.00827
  7   n           x   0.09267  0.05524 -0.04288  0.10778  0.07724 -0.00659
                  y  -0.07975 -0.06799 -0.06678 -0.06039 -0.05976  0.00842
                  z   0.06979  0.01195 -0.09970 -0.05094 -0.07519  0.00577
  8   n           x   0.02341 -0.00534  0.02610 -0.00756  0.00580  0.25813
                  y  -0.02864  0.05608 -0.09730 -0.01538 -0.04146  0.23978
                  z   0.15118 -0.05992  0.00644  0.01052 -0.02453  0.13008
  9   n           x   0.03014  0.01914 -0.08432 -0.09708  0.07854 -0.02548
                  y   0.14130 -0.04792  0.03458 -0.02281  0.02773 -0.07992
                  z   0.00134  0.02981 -0.09789 -0.09902  0.07461 -0.01914
 10   c           x  -0.07090  0.04111 -0.04828  0.27424 -0.08775 -0.05839
                  y  -0.05477 -0.14573 -0.03385 -0.02503 -0.11130  0.01174
                  z  -0.11861  0.09393  0.17146  0.00234 -0.18980 -0.07113
 11   c           x  -0.08999 -0.02703  0.07427  0.12501 -0.01272 -0.03488
                  y   0.03878  0.08017  0.16057 -0.00707 -0.03240 -0.02494
                  z  -0.12868 -0.05123  0.16819 -0.11555 -0.14250 -0.03085
 12   c           x  -0.00112  0.02366 -0.07887  0.01903 -0.08967  0.03335
                  y  -0.07635  0.06604 -0.05972 -0.00516 -0.00993  0.19552
                  z   0.02594 -0.01614  0.02267  0.03393 -0.00188 -0.01715
 13   c           x   0.01008  0.03957  0.13700  0.12820  0.26339  0.01387
                  y  -0.01542  0.03074  0.10764 -0.01078  0.09349  0.01454
                  z  -0.11917 -0.06982  0.12094 -0.11185  0.10023  0.03414
 14   c           x   0.04725  0.01735 -0.08357 -0.02490 -0.19551 -0.03729
                  y  -0.06509 -0.06747 -0.11742 -0.05087 -0.17974 -0.01770
                  z   0.14186  0.05135 -0.19754  0.07776 -0.20527 -0.04625
 15   c           x   0.01704 -0.02987 -0.00889  0.00160 -0.00132  0.02842
                  y  -0.21840  0.06731 -0.06208 -0.01104  0.00315 -0.13164
                  z   0.06774 -0.05636  0.06253  0.01867  0.00262  0.10958
 16   h           x   0.01318  0.14547 -0.04083  0.37230 -0.01421 -0.11165
                  y  -0.00623 -0.58595 -0.26754 -0.29678 -0.04885  0.01627
                  z  -0.11315 -0.10029  0.07633 -0.12204 -0.17729 -0.06127
 17   h           x  -0.23096  0.08596 -0.04142  0.39746 -0.09477 -0.01836
                  y  -0.08513 -0.18245 -0.05668 -0.03074 -0.11212  0.02157
                  z  -0.15052  0.59679  0.43254  0.31922 -0.21678 -0.09382
 18   h           x   0.12859 -0.11541 -0.12341 -0.01931 -0.04108 -0.24017
                  y  -0.24133  0.04974  0.03090  0.16032 -0.12253  0.11114
                  z  -0.20509 -0.02320  0.14954  0.25087 -0.20773 -0.01446
 19   h           x   0.06060  0.11613  0.26542  0.15698  0.48607  0.04143
                  y  -0.01759  0.04922  0.17255  0.00364  0.23609  0.03692
                  z  -0.22782 -0.14063  0.14683 -0.10434  0.28263  0.08083
 20   h           x   0.00675 -0.01656  0.03406 -0.01706  0.04511  0.10078
                  y   0.12071 -0.05561  0.05901  0.08895 -0.10342 -0.05464
                  z  -0.06178  0.07533 -0.22889 -0.04011 -0.06150 -0.18196
 21   h           x   0.03564 -0.03072 -0.06397 -0.00537 -0.02522  0.03844
                  y  -0.38012  0.08338 -0.02711 -0.00309  0.03981 -0.37939
                  z   0.17386 -0.06520  0.03317  0.01244 -0.02479  0.27517
 22   h           x   0.00080 -0.04649 -0.01823  0.00126  0.00878 -0.24945
                  y  -0.25929  0.07942 -0.05734 -0.00929  0.00661 -0.10593
                  z  -0.11851 -0.03653  0.06915  0.02433  0.03470 -0.24678
 23   h           x   0.01058 -0.02811  0.00583  0.00329  0.00446  0.02844
                  y  -0.18557  0.04350 -0.06622 -0.00951  0.00544 -0.33273
                  z   0.02716 -0.03845  0.13214  0.02659  0.02622  0.23475

reduced mass(g/mol)     7.172    3.214    7.754    7.030    6.897    5.185


       mode              25       26       27       28       29       30

     frequency         532.00   554.55   564.47   609.51   643.09   670.46

     symmetry            a        a        a        a        a        a   

        IR               YES      YES      YES      YES      YES      YES
|dDIP/dQ|   (a.u.)     0.0092   0.0038   0.0031   0.0019   0.0017   0.0010
intensity (km/mol)     151.99    25.36    17.12     6.62     4.97     1.84
intensity (  %   )      37.66     6.28     4.24     1.64     1.23     0.45
 
       RAMAN             YES      YES      YES      YES      YES      YES
 
  1   cl          x   0.00594  0.02012  0.05113  0.01593  0.05101  0.00115
                  y  -0.00375 -0.01330 -0.03558 -0.02041 -0.05060 -0.00061
                  z  -0.00154 -0.00446 -0.01331 -0.01271 -0.01492 -0.00204
  2   s           x  -0.00180 -0.00435 -0.02481 -0.04853 -0.05580 -0.09953
                  y   0.00681  0.00897  0.01914 -0.02671 -0.26457  0.09840
                  z   0.00791  0.02940  0.07791  0.02228  0.17493  0.00695
  3   o           x   0.00173  0.00289 -0.02712  0.00100  0.02378  0.01178
                  y   0.01657 -0.06124 -0.00016  0.00023  0.06729 -0.04945
                  z  -0.01054 -0.02640  0.00560  0.00011  0.00203  0.01844
  4   o           x   0.00692 -0.02389  0.01181 -0.00098  0.01845 -0.01472
                  y   0.01669  0.03321  0.02007 -0.00124 -0.03756 -0.02575
                  z   0.01110  0.00409 -0.01668  0.00059  0.02032 -0.03141
  5   n           x   0.01876  0.00730  0.11293 -0.00836 -0.08984 -0.00334
                  y   0.02299 -0.00212  0.02500  0.00546  0.05358 -0.10347
                  z  -0.05731  0.04708 -0.01151  0.01359 -0.01921  0.06121
  6   n           x   0.04884  0.04117 -0.02955  0.00034 -0.02298  0.06225
                  y  -0.04246 -0.02320  0.01520  0.00007 -0.02014  0.02841
                  z  -0.02229  0.00748  0.03094 -0.00179 -0.07913 -0.05636
  7   n           x  -0.00697 -0.01221 -0.03926 -0.25287  0.03870 -0.00055
                  y   0.00504  0.03439  0.09127 -0.09983  0.27079  0.03249
                  z   0.00225  0.03594  0.07746 -0.26535 -0.11792 -0.00546
  8   n           x   0.01050  0.01764 -0.05783  0.00308  0.03745  0.07580
                  y  -0.01601  0.02645 -0.02657 -0.00256 -0.04522 -0.00775
                  z   0.00833 -0.01245 -0.00226 -0.00225 -0.00157 -0.08850
  9   n           x   0.00749 -0.03521  0.00191  0.00004  0.01469 -0.01269
                  y   0.00624  0.00367 -0.00647  0.00101 -0.00110  0.01988
                  z  -0.00417 -0.01249 -0.01993  0.00054  0.04115  0.00160
 10   c           x  -0.01129  0.03836  0.11682  0.05450  0.04295  0.13145
                  y  -0.00414 -0.00171 -0.00216 -0.02974 -0.00203 -0.14952
                  z  -0.02794 -0.00860 -0.04346 -0.07311 -0.10883 -0.13156
 11   c           x  -0.00799 -0.05031 -0.09167 -0.03426  0.18982  0.20634
                  y  -0.01356 -0.05067 -0.12597 -0.06838  0.18509 -0.09668
                  z  -0.01271 -0.06195 -0.14566 -0.09862  0.04688  0.11543
 12   c           x  -0.01224  0.04843  0.03430 -0.00209 -0.15648 -0.16301
                  y  -0.01985  0.02317 -0.03561  0.00283  0.01528  0.13685
                  z  -0.01092 -0.00207  0.01469  0.00014  0.01623  0.23927
 13   c           x   0.00077 -0.02147 -0.06131  0.11469 -0.08249  0.00404
                  y   0.00649  0.01666  0.04344  0.12842  0.18108 -0.08328
                  z   0.01398  0.03100  0.07113  0.18257 -0.11403  0.02533
 14   c           x  -0.01271 -0.04913 -0.11050  0.19936 -0.04039  0.01893
                  y  -0.00268 -0.00770 -0.00022  0.18916  0.22447  0.01847
                  z  -0.01277 -0.05657 -0.12266  0.22999 -0.12395 -0.01615
 15   c           x   0.01014 -0.00550 -0.00816  0.00101  0.03731 -0.03448
                  y  -0.01293  0.01411  0.01501 -0.00173 -0.04565  0.04171
                  z   0.03034 -0.02091 -0.01378  0.00249  0.06101 -0.06801
 16   h           x  -0.03414  0.08123  0.17603  0.08431  0.06749  0.05071
                  y  -0.02146  0.03017  0.00352 -0.01060 -0.27438  0.29904
                  z  -0.03181 -0.00247 -0.05127 -0.07055 -0.22024  0.06120
 17   h           x   0.02668  0.04186  0.19947  0.09207  0.02655  0.11840
                  y   0.00546 -0.00065  0.01637 -0.02082 -0.04094 -0.10993
                  z  -0.01589 -0.03893 -0.05387 -0.09707  0.23563 -0.58836
 18   h           x  -0.51609  0.41398 -0.14324  0.04367  0.13083 -0.21551
                  y   0.17292 -0.11977  0.10532 -0.01100  0.00292 -0.09055
                  z   0.55981 -0.44039  0.33325 -0.05564 -0.20978  0.03096
 19   h           x   0.00297  0.01001 -0.02330  0.37848 -0.39611 -0.27972
                  y   0.01117  0.04902  0.10293  0.33792  0.00895 -0.23396
                  z   0.03052  0.11353  0.26313  0.58443 -0.27107 -0.05422
 20   h           x  -0.45052 -0.53311  0.57847 -0.00332 -0.16731  0.02233
                  y   0.11875  0.18276 -0.11644 -0.00114 -0.07557  0.06227
                  z   0.38473  0.48487 -0.43286 -0.00003 -0.01149 -0.01089
 21   h           x  -0.00880  0.00228 -0.00162 -0.00097  0.01468 -0.08597
                  y   0.00574 -0.01158  0.05431 -0.00057 -0.03868  0.08313
                  z   0.01905  0.00410 -0.04549  0.00174  0.05233 -0.09962
 22   h           x  -0.01487 -0.03221  0.05637 -0.00133  0.01066 -0.05587
                  y   0.00346  0.02451 -0.00254 -0.00091 -0.03647  0.05694
                  z   0.05176 -0.02291  0.02189  0.00227  0.05228 -0.04035
 23   h           x   0.00996 -0.00767 -0.00825  0.00161  0.03967 -0.01531
                  y  -0.01621  0.00120  0.05278 -0.00524 -0.05781  0.01946
                  z   0.05097 -0.01385 -0.05021  0.00795  0.08650  0.01586

reduced mass(g/mol)     1.190    1.513    2.981    5.406    8.609    4.829


       mode              31       32       33       34       35       36

     frequency         694.83   701.24   747.78   775.69   793.47   860.12

     symmetry            a        a        a        a        a        a   

        IR               YES      YES      YES      YES      YES      YES
|dDIP/dQ|   (a.u.)     0.0036   0.0036   0.0022   0.0024   0.0023   0.0015
intensity (km/mol)      23.14    22.71     8.24     9.86     9.24     4.20
intensity (  %   )       5.73     5.63     2.04     2.44     2.29     1.04
 
       RAMAN             YES      YES      YES      YES      YES      YES
 
  1   cl          x  -0.00113 -0.00699 -0.03412 -0.00251 -0.00207  0.00234
                  y  -0.00022  0.00285  0.02245  0.00155  0.00147 -0.00127
                  z   0.00194  0.00326  0.01670  0.00117  0.00122 -0.00123
  2   s           x   0.04009 -0.09231 -0.08678 -0.00549 -0.00325  0.00255
                  y  -0.09804  0.02355  0.03714  0.00442  0.00845 -0.00299
                  z   0.03178  0.05065  0.06836  0.00157  0.00248  0.00397
  3   o           x  -0.00869 -0.01042 -0.00557 -0.23491  0.18768 -0.02210
                  y  -0.11176 -0.03970  0.03613  0.05060 -0.08191  0.10116
[...]
                  y  -0.01958  0.06565  0.02656  0.09295  0.00876  0.00008
                  z   0.01976 -0.00900 -0.01260 -0.04562 -0.01081 -0.00056
  9   n           x  -0.01275  0.07798  0.02427 -0.06154 -0.02410  0.00133
                  y  -0.02624  0.32532  0.04194  0.01948 -0.00021 -0.00717
                  z  -0.00781  0.02740  0.01801 -0.06225 -0.02312  0.00292
 10   c           x  -0.01941 -0.09071  0.13377  0.00614  0.00973  0.04747
                  y   0.01760 -0.04705  0.01454 -0.00216  0.00121  0.01895
                  z   0.00205  0.02442 -0.02171 -0.00885 -0.00372 -0.04784
 11   c           x   0.04625  0.02952 -0.01880 -0.00534  0.00101 -0.15221
                  y  -0.11150 -0.01253 -0.01215  0.00147  0.00163 -0.14421
                  z   0.03667  0.00594 -0.01089  0.00140 -0.00482  0.20993
 12   c           x  -0.00798 -0.14139 -0.03054 -0.02803 -0.01353 -0.00287
                  y  -0.01242 -0.01707 -0.01142 -0.03820  0.00666 -0.00388
                  z  -0.00664 -0.13249 -0.02084 -0.00995 -0.01672 -0.00039
 13   c           x  -0.09611 -0.00679 -0.01734  0.00279 -0.00233  0.08945
                  y   0.04841  0.00675 -0.00379  0.00002 -0.00216  0.12765
                  z   0.05684  0.00156  0.02055 -0.00236  0.00341 -0.14523
 14   c           x  -0.02581 -0.00462 -0.00398  0.00269 -0.00318  0.23312
                  y   0.02465  0.00299  0.00544 -0.00450  0.00821 -0.53817
                  z   0.00751  0.00220 -0.00015  0.00025 -0.00212  0.11184
 15   c           x  -0.00294 -0.00542  0.00452  0.03537 -0.06369 -0.00933
                  y   0.00694 -0.03473 -0.01094 -0.05474  0.01943  0.00439
                  z  -0.00756  0.01143  0.00980  0.06842 -0.07316 -0.01135
 16   h           x   0.56603  0.62781 -0.60469 -0.09235 -0.06453  0.31519
                  y   0.02857  0.18979 -0.15855 -0.01017  0.01161 -0.02535
                  z  -0.09341  0.00045  0.03764  0.00595  0.01464 -0.10697
 17   h           x  -0.51270  0.12838 -0.70846 -0.01370 -0.02593 -0.29555
                  y  -0.08569 -0.00083 -0.15521 -0.00834 -0.00825 -0.05901
                  z   0.02291 -0.01824  0.02853  0.02220  0.03263  0.04466
 18   h           x  -0.14589  0.36348  0.10621  0.04414  0.00623  0.03270
                  y   0.03952  0.00478  0.01429 -0.01985 -0.00501  0.01926
                  z  -0.15764  0.32804  0.13067  0.04260  0.01995  0.02791
 19   h           x   0.34397  0.01654  0.05215 -0.00527  0.00330  0.05030
                  y   0.14376  0.01252  0.00370 -0.00144 -0.00252  0.15297
                  z  -0.39812 -0.02219 -0.07168  0.00542 -0.00425 -0.16099
 20   h           x   0.03041  0.09391 -0.02682  0.34274  0.12948  0.00215
                  y   0.08792 -0.09615 -0.11329  0.75005  0.26269  0.00905
                  z   0.01623 -0.01019 -0.01819  0.12889  0.04718  0.00255
 21   h           x  -0.01372  0.08450 -0.00439 -0.03924  0.54280  0.07640
                  y  -0.00070  0.04803  0.02221  0.23337 -0.25471 -0.03535
                  z  -0.00377 -0.03483 -0.01487 -0.15230  0.18454  0.02511
 22   h           x  -0.02310  0.04868  0.00478 -0.20953  0.22377  0.03613
                  y   0.00988 -0.04280 -0.00834  0.00039 -0.03606 -0.00628
                  z  -0.02992  0.07729  0.01615 -0.19493  0.21836  0.02603
 23   h           x  -0.00611  0.02605  0.00237 -0.00077  0.11713  0.01566
                  y  -0.00588  0.08093  0.01995  0.21326  0.01327 -0.00709
                  z  -0.01039  0.06380 -0.01245 -0.17932  0.62042  0.09277

reduced mass(g/mol)     1.508    4.481    1.346    1.663    1.168    9.423


       mode              55       56       57       58       59       60

     frequency        1468.51  1503.19  1515.95  1549.11  1569.19  1659.79

     symmetry            a        a        a        a        a        a   

        IR               YES      YES      YES      YES      YES      YES
|dDIP/dQ|   (a.u.)     0.0016   0.0016   0.0019   0.0132   0.0033   0.0128
intensity (km/mol)       4.60     4.55     6.59   309.69    18.82   290.77
intensity (  %   )       1.14     1.13     1.63    76.74     4.66    72.05
 
       RAMAN             YES      YES      YES      YES      YES      YES
 
  1   cl          x   0.00010  0.00002 -0.00001 -0.00063 -0.00261 -0.00013
                  y  -0.00008 -0.00001  0.00001  0.00035  0.00204  0.00006
                  z  -0.00004 -0.00001  0.00000  0.00031  0.00100  0.00009
  2   s           x   0.00019  0.00002 -0.00001  0.00041 -0.00237 -0.00011
                  y  -0.00058  0.00003  0.00005 -0.00058  0.00031 -0.00006
                  z   0.00008 -0.00002 -0.00001  0.00019  0.00167  0.00014
  3   o           x  -0.00047 -0.01132  0.00003  0.00068  0.00078  0.10139
                  y   0.00006 -0.00590  0.00000 -0.00427  0.00179  0.03949
                  z  -0.00041 -0.01121  0.00007  0.00098  0.00069  0.10436
  4   o           x  -0.00060 -0.01035  0.00049  0.00610 -0.00129  0.08561
                  y   0.00024  0.01237 -0.00044 -0.00685  0.00175 -0.07059
                  z  -0.00059 -0.01313  0.00018  0.00699 -0.00140  0.10700
  5   n           x  -0.01087  0.00401 -0.00336  0.12918 -0.03940 -0.01658
                  y   0.00076  0.00503  0.00083 -0.01029 -0.00406  0.00248
                  z  -0.00598 -0.00024 -0.00272  0.12642 -0.03189 -0.01557
  6   n           x  -0.00350  0.01023 -0.00098  0.02840 -0.00707  0.07441
                  y  -0.00204  0.02405 -0.00140  0.01512 -0.00488  0.04938
                  z  -0.00280  0.00329 -0.00031  0.02286 -0.00551  0.06200
  7   n           x  -0.00069  0.00001 -0.00014 -0.00691 -0.03780 -0.00006
                  y  -0.00043 -0.00048  0.00045  0.01913  0.17067 -0.00028
                  z   0.00139  0.00020 -0.00021 -0.00460 -0.06623  0.00040
  8   n           x  -0.00468 -0.00722  0.00773  0.01842 -0.00448  0.00202
                  y   0.01148 -0.02398 -0.00463  0.02398 -0.01252 -0.01040
                  z  -0.01004  0.00696 -0.00770  0.00459  0.00295  0.00698
  9   n           x   0.00207  0.02108 -0.00049 -0.01539  0.00232 -0.25688
                  y  -0.00019 -0.01084  0.00114  0.01425 -0.00463  0.05278
                  z   0.00199  0.02273  0.00019 -0.01829  0.00314 -0.29518
 10   c           x  -0.00847 -0.00428  0.00087 -0.02924 -0.05234  0.00847
                  y   0.03400  0.00047 -0.00112  0.03207 -0.01740 -0.00967
                  z   0.07006 -0.00236 -0.00073 -0.00865  0.06304  0.00544
 11   c           x   0.00184 -0.00011 -0.00001  0.00912  0.22377 -0.00026
                  y   0.00897 -0.00023 -0.00011  0.01609  0.20085 -0.00015
                  z   0.00241  0.00067  0.00007 -0.02115 -0.30784  0.00000
 12   c           x   0.00933  0.00825  0.00200 -0.10295  0.02824 -0.01816
                  y  -0.00511 -0.00833 -0.00111 -0.03539  0.01909  0.00285
                  z   0.01469  0.01198  0.00217 -0.09974  0.02178 -0.00865
 13   c           x   0.00260  0.00057 -0.00001 -0.01124 -0.18819  0.00013
                  y  -0.00103 -0.00001 -0.00014 -0.01397 -0.20738  0.00007
                  z  -0.00237 -0.00065 -0.00003  0.01695  0.28281  0.00006
 14   c           x  -0.00137 -0.00030  0.00022  0.00828  0.04871  0.00061
                  y   0.00076  0.00077 -0.00053 -0.02193 -0.18288  0.00020
                  z   0.00049 -0.00015  0.00013  0.00539  0.06454 -0.00086
 15   c           x   0.00090 -0.01221  0.03299 -0.00060 -0.00013 -0.00145
                  y  -0.00408 -0.04882 -0.02104 -0.00573  0.00095 -0.00460
                  z  -0.00060  0.01885 -0.03778  0.00141 -0.00019  0.00127
 16   h           x   0.10887  0.00583  0.00405 -0.20211 -0.15300  0.02736
                  y  -0.64480  0.01697  0.01395 -0.19171  0.08041  0.01713
                  z  -0.23894  0.00237  0.00506 -0.07171  0.11611  0.01459
 17   h           x  -0.02771  0.02185 -0.00235  0.14764  0.10975 -0.05621
                  y   0.09298  0.00375 -0.00272  0.07834  0.02246 -0.02129
                  z  -0.69106  0.01865  0.01174 -0.06945 -0.02367 -0.01079
 18   h           x   0.09807 -0.06210  0.00778 -0.67932  0.18270  0.21414
                  y   0.00658  0.00184  0.00197 -0.05922  0.00731  0.00338
                  z   0.08554 -0.06371  0.01062 -0.57686  0.15156  0.20141
 19   h           x  -0.02023  0.00050  0.00087  0.03266  0.52459 -0.00054
                  y  -0.00579  0.00081  0.00055 -0.00618 -0.09402 -0.00059
                  z   0.01619  0.00171  0.00144 -0.02672 -0.41240 -0.00087
 20   h           x  -0.00003 -0.09623  0.02762 -0.01568  0.00788 -0.27551
                  y   0.00879 -0.18793  0.00378 -0.11630  0.03629 -0.77078
                  z  -0.00001 -0.03572 -0.01557 -0.01508  0.00581 -0.11929
 21   h           x   0.03364  0.46321 -0.12130 -0.03155  0.00487  0.02822
                  y  -0.00392  0.25345 -0.42672 -0.02532  0.01441  0.03586
                  z   0.00362 -0.13843  0.26050  0.01100 -0.00840 -0.01912
 22   h           x  -0.01053 -0.40199 -0.43331  0.03247 -0.01782 -0.04289
                  y   0.00443  0.04764  0.30211 -0.00677  0.00266  0.00666
                  z   0.00859 -0.39508  0.46964  0.06987 -0.02799 -0.04021
 23   h           x   0.01353  0.11720  0.04094 -0.00941  0.00146  0.01092
                  y   0.02576  0.51583  0.44886 -0.01051  0.00908  0.05230
                  z   0.03619  0.20229 -0.16693 -0.02427 -0.00188 -0.00135

reduced mass(g/mol)     1.086    1.086    1.043    1.768    5.817    3.901


       mode              61       62       63       64       65       66

     frequency        1725.71  2957.86  2999.81  3067.09  3099.38  3114.61

     symmetry            a        a        a        a        a        a   

        IR               YES      YES      YES      YES      YES      YES
|dDIP/dQ|   (a.u.)     0.0151   0.0063   0.0048   0.0035   0.0037   0.0009
intensity (km/mol)     403.57    71.38    40.36    21.28    24.55     1.48
intensity (  %   )     100.00    17.69    10.00     5.27     6.08     0.37
 
       RAMAN             YES      YES      YES      YES      YES      YES
 
  1   cl          x  -0.00027  0.00002  0.00000  0.00000  0.00000  0.00002
                  y   0.00012 -0.00001  0.00000  0.00001  0.00000 -0.00001
                  z   0.00018 -0.00001  0.00000  0.00000  0.00000  0.00000
  2   s           x   0.00037  0.00000  0.00000  0.00002  0.00000  0.00015
                  y  -0.00064  0.00001  0.00000 -0.00006  0.00001 -0.00013
                  z   0.00005 -0.00001  0.00000 -0.00002  0.00000 -0.00005
  3   o           x   0.00984 -0.00017  0.00003  0.00005 -0.00004  0.00002
                  y   0.00552 -0.00013  0.00000  0.00003 -0.00006 -0.00002
                  z   0.00899 -0.00018 -0.00005  0.00003 -0.00003  0.00000
  4   o           x   0.01011 -0.00004  0.00003  0.00005  0.00003  0.00004
                  y  -0.00542  0.00002  0.00000  0.00003 -0.00008 -0.00006
                  z   0.01042 -0.00004 -0.00002  0.00005  0.00005  0.00005
  5   n           x   0.03287  0.00013 -0.00015  0.00110  0.00011  0.00062
                  y  -0.07645 -0.00027  0.00010 -0.00019 -0.00004 -0.00076
                  z   0.06916  0.00057  0.00001  0.00058  0.00015  0.00044
  6   n           x  -0.00053 -0.00013  0.00007 -0.00001  0.00001 -0.00001
                  y  -0.06238 -0.00097 -0.00004  0.00002 -0.00001 -0.00008
                  z   0.01691  0.00052 -0.00008  0.00010 -0.00004  0.00008
  7   n           x  -0.00133  0.00005  0.00000 -0.00005  0.00001 -0.00018
                  y  -0.00061 -0.00003  0.00001  0.00014  0.00001 -0.00005
                  z   0.00285 -0.00003 -0.00001  0.00002 -0.00001  0.00012
  8   n           x  -0.00271  0.00127  0.00003 -0.00004  0.00068 -0.00016
                  y  -0.34135 -0.00279  0.00021 -0.00021 -0.00012 -0.00021
                  z   0.19098  0.00293 -0.00022 -0.00013  0.00067 -0.00024
  9   n           x  -0.02539  0.00001 -0.00009 -0.00011  0.00002 -0.00007
                  y   0.00063  0.00025  0.00008 -0.00005  0.00022  0.00012
                  z  -0.01836 -0.00006  0.00014 -0.00007  0.00000 -0.00007
 10   c           x   0.01903 -0.00017 -0.00003  0.00211  0.00027 -0.02058
                  y   0.02087 -0.00010  0.00007  0.01744 -0.00133  0.08435
                  z  -0.00172  0.00014 -0.00002  0.06735  0.00069 -0.03379
 11   c           x  -0.00927 -0.00002 -0.00002 -0.00022  0.00001 -0.00054
                  y  -0.00585  0.00006 -0.00002 -0.00007  0.00000  0.00129
                  z   0.00477  0.00001  0.00000  0.00007  0.00000 -0.00031
 12   c           x  -0.01230  0.00104  0.00049 -0.00063 -0.00040  0.00040
                  y   0.50318  0.00381 -0.00052  0.00056  0.00082  0.00050
                  z  -0.28957 -0.00130 -0.00025 -0.00095 -0.00081 -0.00031
 13   c           x   0.00428  0.00000 -0.00002  0.00034  0.00012  0.00014
                  y   0.00669 -0.00003  0.00002 -0.00003 -0.00025 -0.00046
                  z  -0.00703  0.00002 -0.00002 -0.00017  0.00007 -0.00002
 14   c           x   0.00126 -0.00004  0.00002 -0.00009 -0.00002  0.00011
                  y  -0.00119  0.00002 -0.00002 -0.00009  0.00000 -0.00004
                  z  -0.00092  0.00003  0.00000  0.00010  0.00001 -0.00008
 15   c           x  -0.02159  0.03807 -0.06186 -0.00014 -0.03996 -0.00065
                  y  -0.00016  0.01596  0.03878  0.00017 -0.07608 -0.00124
                  z  -0.02201  0.03820  0.05646 -0.00006  0.01213  0.00026
 16   h           x  -0.12156 -0.00024  0.00023 -0.13464 -0.00145  0.08181
                  y  -0.14031  0.00066 -0.00038  0.31744  0.00363 -0.19466
                  z  -0.03832 -0.00266  0.00084 -0.76344 -0.00933  0.48819
 17   h           x  -0.06283  0.00002 -0.00014  0.10299 -0.00234  0.16167
                  y   0.01908 -0.00053 -0.00026 -0.53039  0.01188 -0.82175
                  z  -0.07562 -0.00059 -0.00021 -0.03816  0.00106 -0.08067
 18   h           x   0.11509  0.00146 -0.00029  0.00021  0.00004 -0.00564
                  y  -0.04801 -0.00357  0.00045  0.00418 -0.00009  0.01337
                  z   0.24850  0.00163 -0.00008  0.00095 -0.00001 -0.00239
 19   h           x  -0.03434 -0.00063  0.00026 -0.00102 -0.00113 -0.00172
                  y  -0.00346  0.00023 -0.00017  0.00142  0.00239  0.00202
                  z   0.00523  0.00013  0.00029  0.00035 -0.00043  0.00123
 20   h           x   0.25441 -0.00683 -0.00451  0.00034  0.00101  0.00021
                  y   0.40653 -0.00336  0.00222  0.00012  0.00208  0.00018
                  z   0.09826 -0.00534  0.00278  0.00050 -0.00001  0.00014
 21   h           x  -0.09597  0.06331  0.03227  0.00012 -0.01993 -0.00020
                  y   0.11706 -0.42383 -0.37037  0.00052  0.04708  0.00039
                  z  -0.07223 -0.61464 -0.52420  0.00135  0.08924  0.00134
 22   h           x  -0.17746  0.07304 -0.02963 -0.00090  0.38705  0.00631
                  y   0.01426  0.15701 -0.00380 -0.00224  0.88155  0.01416
                  z  -0.17266 -0.02802  0.02522  0.00059 -0.20617 -0.00330
 23   h           x  -0.01512 -0.60923  0.73476  0.00172  0.10166  0.00024
                  y   0.08307  0.09327 -0.08927 -0.00023 -0.03172 -0.00026
                  z  -0.17196  0.15695 -0.17052 -0.00054 -0.02883 -0.00057

reduced mass(g/mol)     6.955    1.043    1.102    1.061    1.091    1.104


       mode              67       68       69

     frequency        3228.15  3594.94  3622.54

     symmetry            a        a        a   

        IR               YES      YES      YES
|dDIP/dQ|   (a.u.)     0.0011   0.0086   0.0062
intensity (km/mol)       2.07   131.81    68.03
intensity (  %   )       0.51    32.66    16.86
 
       RAMAN             YES      YES      YES
 
  1   cl          x  -0.00003  0.00002  0.00000
                  y   0.00002 -0.00001  0.00000
                  z   0.00001 -0.00001  0.00000
  2   s           x   0.00024  0.00000  0.00000
                  y  -0.00034  0.00001 -0.00001
                  z  -0.00003  0.00000  0.00000
  3   o           x  -0.00001  0.00040  0.00015
                  y  -0.00001 -0.00031  0.00014
                  z  -0.00001  0.00047  0.00004
  4   o           x   0.00000  0.00023 -0.00039
                  y  -0.00001 -0.00185  0.00083
                  z   0.00000  0.00071 -0.00064
  5   n           x   0.00011 -0.00711 -0.00076
                  y   0.00001 -0.07151 -0.00227
                  z   0.00008  0.01261 -0.00007
  6   n           x   0.00000 -0.00120  0.03772
                  y  -0.00005 -0.00024 -0.02790
                  z   0.00001 -0.00135  0.05612
  7   n           x   0.00054  0.00006 -0.00001
                  y   0.00001 -0.00009  0.00000
                  z  -0.00045 -0.00002  0.00002
  8   n           x  -0.00025 -0.00011  0.00018
                  y  -0.00009  0.00091 -0.00063
                  z   0.00004 -0.00103  0.00040
  9   n           x   0.00000 -0.00089 -0.00018
                  y   0.00004  0.00244 -0.00058
                  z  -0.00001 -0.00144  0.00059
 10   c           x   0.00001  0.00082  0.00005
                  y   0.00037  0.00031  0.00006
                  z  -0.00026 -0.00011  0.00001
 11   c           x  -0.00230  0.00005  0.00000
                  y  -0.00220  0.00012  0.00000
                  z   0.00326  0.00008 -0.00001
 12   c           x   0.00003  0.00077 -0.00056
                  y   0.00023 -0.00038  0.00102
                  z  -0.00012  0.00011 -0.00041
 13   c           x  -0.03316 -0.00006  0.00000
                  y   0.07939  0.00004  0.00001
                  z  -0.01970  0.00000  0.00000
 14   c           x   0.00089 -0.00001  0.00002
                  y  -0.00175  0.00007  0.00000
                  z   0.00024 -0.00003 -0.00002
 15   c           x  -0.00006  0.00011 -0.00034
                  y  -0.00027  0.00003  0.00012
                  z   0.00006  0.00028 -0.00068
 16   h           x   0.00107 -0.00231 -0.00025
                  y  -0.00064  0.00071  0.00002
                  z  -0.00084 -0.00380 -0.00043
 17   h           x   0.00205  0.00400  0.00001
                  y  -0.00242  0.01484  0.00015
                  z  -0.00133  0.00279  0.00001
 18   h           x  -0.00025  0.08491  0.00275
                  y  -0.00065  0.97981  0.02732
                  z   0.00014 -0.16229 -0.00394
 19   h           x   0.39657  0.00022 -0.00002
                  y  -0.89051 -0.00057  0.00006
                  z   0.20466  0.00032 -0.00003
 20   h           x  -0.00002  0.01392 -0.50276
                  y   0.00005 -0.01170  0.38199
                  z  -0.00004  0.02177 -0.77144
 21   h           x  -0.00006  0.00021 -0.00196
                  y   0.00017 -0.00067  0.00095
                  z   0.00007 -0.00228  0.00579
 22   h           x   0.00099 -0.00006 -0.00023
                  y   0.00249  0.00040 -0.00114
                  z  -0.00072 -0.00039  0.00085
 23   h           x  -0.00021 -0.00253  0.00300
                  y   0.00014  0.00110 -0.00283
                  z  -0.00007 -0.00033 -0.00089

reduced mass(g/mol)     1.094    1.077    1.078
 

         **************************************************************
         *                                                            *
         *  zero point VIBRATIONAL energy  :      0.1604937  Hartree  *
         *    SCF-energy                   :  -1515.7727097           *
         *    SCF + E(vib0)                :  -1515.6122159           *
         *                                                            *
         **************************************************************




 time elapsed for vibrational analysis     0.20 sec


    ------------------------------------------------------------------------
         total  cpu-time : 16 hours 16 minutes and 54 seconds
         total wall-time : 16 hours 17 minutes and 12 seconds
    ------------------------------------------------------------------------


   ****  force : all done  ****


    2017-12-21 12:07:19.609 

