
 Entering Gaussian System

 Gaussian 94:

 This file is not fully up to G94 outfile specs, but it should be
 compatible enough for Jmol 11 to be able to animate the vibrations.
 Created by aoforce2g94 v1.41

 All possible zero-frequencies from aoforce output removed.
 Displacement scaling factor: 1.000000


                   Standard orientation:
 ----------------------------------------------------------
 Center     Atomic              Coordinates (Angstroms)
 Number     Number             X           Y           Z
 ----------------------------------------------------------
    1         17           4.278368   -0.868216   -0.948886 
    2         16           1.951088   -0.725131    0.958703 
    3          8          -4.073478   -1.845909   -1.133815 
    4          8          -2.636645   -2.067549    0.481949 
    5          7          -1.432606    0.235100    1.299104 
    6          7          -3.117039   -0.036471   -0.345587 
    7          7           2.576323    1.167134   -0.674343 
    8          7          -1.848858    1.936821   -0.210663 
    9          7          -3.271917   -1.410066   -0.328543 
   10          6          -0.239600    0.888011    1.821636 
   11          6           0.976358    0.721629    0.956822 
   12          6          -2.081809    0.766326    0.225139 
   13          6           1.470933    1.583540    0.027206 
   14          6           2.929017   -0.010207   -0.296840 
   15          6          -2.590615    2.498482   -1.319198 
   16          1          -0.066607    0.487498    2.820250 
   17          1          -0.446745    1.951789    1.922432 
   18          1          -1.535128   -0.758231    1.432291 
   19          1           1.033955    2.546346   -0.188216 
   20          1          -3.622610    0.345908   -1.128994 
   21          1          -2.526627    1.890881   -2.232165 
   22          1          -2.174946    3.474787   -1.560949 
   23          1          -3.652212    2.651910   -1.084780 
 ----------------------------------------------------------

     0 basis functions        0 primitive gaussians
     0 alpha electrons        0 beta electrons

 ----------------------------------------------------------

 Harmonic frequencies (cm**-1), IR intensities (KM/Mole),
 Raman scattering activities (A**4/AMU), Raman depolarization ratios,
 reduced masses (AMU), force constants (mDyne/A) and normal coordinates:
                     1                      2                      3
                     a                      a                      a
 Frequencies --    21.9900                27.1800                51.2500
 Red. masses --    14.9760                 7.1410                 7.5210
 Frc consts  --     0.0                    0.0                    0.0
 IR Inten    --     0.1400                 0.4500                 0.6200
 Raman Activ --
 Depolar     --
 Atom AN      X      Y      Z        X      Y      Z        X      Y      Z  
   1  17     0.27   0.16   0.10     0.06  -0.05   0.08     0.04  -0.07   0.07
   2  16     0.16  -0.02  -0.02     0.13   0.07   0.15    -0.11  -0.04  -0.12
   3   8    -0.48   0.11   0.19     0.02   0.04  -0.06    -0.15  -0.01   0.17
   4   8    -0.34  -0.01   0.06     0.12  -0.01  -0.16     0.27  -0.04  -0.21
   5   7     0.03  -0.15  -0.15     0.01   0.00  -0.01     0.02   0.04  -0.05
   6   7    -0.08   0.00  -0.06    -0.06   0.03   0.05    -0.08  -0.01   0.08
   7   7     0.08   0.02  -0.01    -0.11  -0.16  -0.21     0.20   0.06   0.12
   8   7     0.03  -0.08  -0.07    -0.12   0.07   0.09    -0.12   0.03  -0.03
   9   7    -0.32   0.04   0.07     0.03   0.02  -0.07     0.02  -0.02   0.01
  10   6     0.01  -0.16  -0.10     0.02   0.01  -0.04     0.01   0.09  -0.09
  11   6     0.04  -0.09  -0.08    -0.00  -0.02  -0.07     0.03   0.05  -0.05
  12   6    -0.01  -0.08  -0.09    -0.06   0.04   0.04    -0.05   0.02  -0.02
  13   6     0.02  -0.06  -0.06    -0.12  -0.13  -0.24     0.18   0.09   0.07
  14   6     0.16   0.05   0.02     0.01  -0.06  -0.02     0.06  -0.01   0.04
  15   6    -0.02   0.00   0.01    -0.20   0.11   0.17    -0.23   0.01   0.03
  16   1     0.00  -0.21  -0.12     0.04   0.03  -0.04     0.01   0.17  -0.06
  17   1    -0.00  -0.17  -0.05     0.01   0.01  -0.06    -0.00   0.09  -0.17
  18   1    -0.02  -0.14  -0.14     0.07  -0.01  -0.08     0.11   0.03  -0.09
  19   1    -0.05  -0.10  -0.09    -0.21  -0.21  -0.38     0.29   0.16   0.13
  20   1    -0.11   0.04  -0.02    -0.12   0.07   0.11    -0.26   0.02   0.21
  21   1    -0.07   0.06  -0.03    -0.24   0.16   0.13    -0.33  -0.01   0.04
  22   1    -0.03   0.02   0.06    -0.24   0.13   0.19    -0.25   0.00  -0.03
  23   1    -0.01  -0.01   0.07    -0.19   0.07   0.24    -0.20   0.02   0.14
                     4                      5                      6
                     a                      a                      a
 Frequencies --    57.9500                76.9000               108.4900
 Red. masses --     7.8160                 4.7030                 6.2100
 Frc consts  --     0.0                    0.0                    0.0
 IR Inten    --     0.2500                 1.6300                 2.3900
 Raman Activ --
 Depolar     --
 Atom AN      X      Y      Z        X      Y      Z        X      Y      Z  
   1  17    -0.08   0.04  -0.05    -0.08  -0.06  -0.04     0.10   0.08   0.11
   2  16     0.04   0.05   0.10     0.02   0.05   0.07    -0.12  -0.10  -0.13
   3   8    -0.27   0.09   0.19    -0.10  -0.04   0.09    -0.01  -0.03   0.13
   4   8     0.25  -0.07  -0.29    -0.02  -0.01   0.03     0.10   0.04   0.04
   5   7    -0.02  -0.01   0.06     0.07  -0.05  -0.11    -0.09   0.06   0.10
   6   7     0.04  -0.00   0.00     0.23  -0.08  -0.26     0.17  -0.02  -0.14
   7   7    -0.13  -0.01  -0.03     0.01   0.01   0.02    -0.09  -0.06  -0.08
   8   7     0.14  -0.06  -0.04    -0.04   0.06   0.04    -0.04   0.10   0.12
   9   7    -0.00   0.01  -0.03     0.01  -0.04  -0.02     0.08   0.01   0.03
  10   6    -0.02  -0.02   0.09    -0.01   0.02   0.00    -0.01  -0.02   0.02
  11   6    -0.02   0.01   0.08     0.04   0.06   0.07    -0.10  -0.08  -0.10
  12   6     0.07  -0.03  -0.01     0.07  -0.02  -0.09    -0.00   0.06   0.04
  13   6    -0.11  -0.02   0.01     0.03   0.04   0.05    -0.11  -0.08  -0.10
  14   6    -0.07   0.02   0.01    -0.01   0.01   0.02    -0.07  -0.05  -0.07
  15   6     0.25  -0.09  -0.13    -0.09   0.09   0.09     0.11   0.06   0.00
  16   1    -0.02  -0.06   0.08    -0.06   0.02   0.01     0.05  -0.05  -0.01
  17   1    -0.03  -0.03   0.13    -0.08   0.01  -0.01     0.07  -0.01   0.06
  18   1     0.04  -0.03  -0.01     0.15  -0.07  -0.19    -0.04   0.04   0.01
  19   1    -0.16  -0.05  -0.01     0.04   0.04   0.04    -0.10  -0.07  -0.08
  20   1    -0.14   0.08   0.16     0.18  -0.08  -0.23     0.11  -0.03  -0.11
  21   1     0.21  -0.20  -0.06     0.19   0.31  -0.03     0.55   0.20  -0.06
  22   1     0.38  -0.17  -0.22    -0.36   0.27   0.36    -0.10   0.21   0.27
  23   1     0.26   0.07  -0.19    -0.17  -0.27   0.00    -0.01  -0.28  -0.29
                     7                      8                      9
                     a                      a                      a
 Frequencies --   136.3000               146.2100               190.7000
 Red. masses --     1.3140                 7.4080                 4.6460
 Frc consts  --     0.0                    0.0                    0.0
 IR Inten    --     0.5100                 0.7900                 6.3900
 Raman Activ --
 Depolar     --
 Atom AN      X      Y      Z        X      Y      Z        X      Y      Z  
   1  17    -0.00   0.00   0.02     0.04   0.09  -0.13     0.02  -0.04  -0.05
   2  16    -0.02   0.01  -0.02     0.10  -0.15   0.09     0.06   0.03   0.01
   3   8    -0.00  -0.03   0.02     0.05  -0.07   0.10    -0.06   0.04  -0.05
   4   8     0.00  -0.00   0.02     0.11   0.13   0.06    -0.08  -0.06  -0.03
   5   7     0.01  -0.02  -0.02    -0.09   0.12  -0.08    -0.07   0.06   0.12
   6   7     0.05  -0.02  -0.05    -0.01   0.05  -0.08     0.11  -0.05  -0.09
   7   7    -0.01   0.00  -0.02    -0.04  -0.07   0.11     0.09   0.02   0.03
   8   7     0.02   0.00   0.01    -0.12   0.13  -0.13    -0.25   0.10   0.22
   9   7     0.01  -0.02   0.00     0.05   0.04   0.03    -0.02  -0.02  -0.05
  10   6    -0.01  -0.00  -0.01    -0.04  -0.07   0.03     0.02   0.05  -0.00
  11   6    -0.01   0.01  -0.01     0.01  -0.18   0.13     0.00  -0.00  -0.05
  12   6     0.02  -0.01  -0.02    -0.06   0.13  -0.09    -0.10   0.04   0.12
  13   6    -0.01   0.01  -0.02    -0.03  -0.14   0.15     0.06   0.01  -0.01
  14   6    -0.02   0.00  -0.01     0.03  -0.06   0.06     0.08   0.02   0.03
  15   6     0.02   0.08   0.05    -0.16   0.05  -0.15     0.04  -0.14  -0.10
  16   1    -0.00  -0.01  -0.01    -0.20  -0.11   0.04     0.07   0.10   0.01
  17   1    -0.02  -0.01   0.00     0.11  -0.03   0.04     0.05   0.05  -0.04
  18   1     0.02  -0.02  -0.03    -0.20   0.13  -0.09    -0.03   0.05   0.10
  19   1    -0.01   0.01  -0.02    -0.09  -0.16   0.18     0.08   0.02  -0.02
  20   1     0.04  -0.03  -0.05    -0.06  -0.02  -0.08     0.00   0.01   0.01
  21   1    -0.48  -0.13   0.15    -0.38  -0.11  -0.06     0.05  -0.47   0.12
  22   1     0.39  -0.16  -0.25    -0.04  -0.06  -0.37     0.28  -0.31  -0.38
  23   1     0.15   0.58   0.30    -0.11   0.25  -0.03     0.04   0.17  -0.31
                    10                     11                     12
                     a                      a                      a
 Frequencies --   207.6200               246.1200               270.0600
 Red. masses --     4.1690                 4.0430                 6.3820
 Frc consts  --     0.0                    0.0                    0.0
 IR Inten    --     4.4800                 4.9800                 0.8500
 Raman Activ --
 Depolar     --
 Atom AN      X      Y      Z        X      Y      Z        X      Y      Z  
   1  17    -0.02  -0.04  -0.04     0.07   0.08  -0.10    -0.03  -0.06  -0.03
   2  16     0.05   0.04   0.02    -0.07  -0.05   0.08     0.06   0.04  -0.01
   3   8     0.02  -0.17   0.05    -0.04  -0.02  -0.04    -0.01   0.02   0.01
   4   8     0.06   0.02   0.02    -0.05  -0.08  -0.03     0.02   0.05  -0.01
   5   7    -0.09  -0.03  -0.05    -0.03   0.08   0.10    -0.24   0.10   0.25
   6   7    -0.16  -0.01   0.02     0.01  -0.05   0.00     0.08   0.01  -0.10
   7   7     0.08   0.05   0.05     0.03  -0.11   0.03     0.11   0.10   0.10
   8   7    -0.05   0.01   0.06     0.05  -0.07  -0.03     0.19  -0.11  -0.12
   9   7    -0.02  -0.05   0.02    -0.03  -0.06  -0.02     0.02   0.03  -0.02
  10   6    -0.07  -0.06  -0.08    -0.03   0.25  -0.06    -0.04  -0.05  -0.00
  11   6    -0.05  -0.02  -0.08    -0.01   0.02   0.01    -0.15  -0.10  -0.19
  12   6    -0.12   0.01  -0.01     0.00  -0.04   0.00     0.02  -0.03   0.00
  13   6     0.01   0.01  -0.03     0.05  -0.04  -0.01    -0.07  -0.04  -0.09
  14   6     0.08   0.05   0.06     0.01  -0.10   0.04     0.15   0.12   0.13
  15   6     0.21   0.22   0.00     0.05   0.09   0.07    -0.12  -0.05   0.10
  16   1    -0.04  -0.09  -0.10    -0.06   0.59   0.08     0.12  -0.11  -0.06
  17   1    -0.06  -0.06  -0.04    -0.06   0.27  -0.44     0.09  -0.03   0.10
  18   1    -0.12  -0.03  -0.04     0.11   0.07   0.14    -0.14   0.07   0.14
  19   1     0.01   0.00  -0.05     0.10  -0.03  -0.05    -0.11  -0.06  -0.12
  20   1    -0.15  -0.06  -0.01     0.04  -0.04  -0.02     0.17  -0.01  -0.17
  21   1     0.41   0.37  -0.08     0.02   0.22  -0.02    -0.32   0.06   0.01
  22   1     0.30   0.25   0.28     0.05   0.12   0.21    -0.26   0.01   0.10
  23   1     0.16   0.22  -0.23     0.05   0.06   0.12    -0.06  -0.17   0.42
                    13                     14                     15
                     a                      a                      a
 Frequencies --   302.7100               337.3100               351.0300
 Red. masses --     7.1720                 3.2140                 7.7540
 Frc consts  --     0.0                    0.0                    0.0
 IR Inten    --     6.1600                 1.5800                 2.4200
 Raman Activ --
 Depolar     --
 Atom AN      X      Y      Z        X      Y      Z        X      Y      Z  
   1  17     0.02   0.06  -0.09     0.05   0.01  -0.06     0.16  -0.06  -0.04
   2  16    -0.15   0.02   0.10    -0.11   0.06   0.06    -0.01   0.09  -0.01
   3   8     0.06   0.03   0.04     0.00   0.04  -0.00    -0.05  -0.19  -0.01
   4   8     0.09   0.25   0.04    -0.03  -0.14   0.00     0.03   0.24  -0.03
   5   7     0.07  -0.23  -0.12    -0.01   0.05  -0.01    -0.14   0.03   0.14
   6   7    -0.02   0.09  -0.06     0.04  -0.02   0.06    -0.12   0.02  -0.15
   7   7     0.09  -0.08   0.07     0.06  -0.07   0.01    -0.04  -0.07  -0.10
   8   7     0.02  -0.03   0.15    -0.01   0.06  -0.06     0.03  -0.10   0.01
   9   7     0.03   0.14   0.00     0.02  -0.05   0.03    -0.08   0.03  -0.10
  10   6    -0.07  -0.05  -0.12     0.04  -0.15   0.09    -0.05  -0.03   0.17
  11   6    -0.09   0.04  -0.13    -0.03   0.08  -0.05     0.07   0.16   0.17
  12   6    -0.00  -0.08   0.03     0.02   0.07  -0.02    -0.08  -0.06   0.02
  13   6     0.01  -0.02  -0.12     0.04   0.03  -0.07     0.14   0.11   0.12
  14   6     0.05  -0.07   0.14     0.02  -0.07   0.05    -0.08  -0.12  -0.20
  15   6     0.02  -0.22   0.07    -0.03   0.07  -0.06    -0.01  -0.06   0.06
  16   1     0.01  -0.01  -0.11     0.15  -0.59  -0.10    -0.04  -0.27   0.08
  17   1    -0.23  -0.09  -0.15     0.09  -0.18   0.60    -0.04  -0.06   0.43
  18   1     0.13  -0.24  -0.21    -0.12   0.05  -0.02    -0.12   0.03   0.15
  19   1     0.06  -0.02  -0.23     0.12   0.05  -0.14     0.27   0.17   0.15
  20   1     0.01   0.12  -0.06    -0.02  -0.06   0.08     0.03   0.06  -0.23
  21   1     0.04  -0.38   0.17    -0.03   0.08  -0.07    -0.06  -0.03   0.03
  22   1     0.00  -0.26  -0.12    -0.05   0.08  -0.04    -0.02  -0.06   0.07
  23   1     0.01  -0.19   0.03    -0.03   0.04  -0.04     0.01  -0.07   0.13
                    16                     17                     18
                     a                      a                      a
 Frequencies --   424.9900               469.3300               506.1200
 Red. masses --     7.0300                 6.8970                 5.1850
 Frc consts  --     0.0                    0.0                    0.0
 IR Inten    --    11.6400                 4.8500                10.9100
 Raman Activ --
 Depolar     --
 Atom AN      X      Y      Z        X      Y      Z        X      Y      Z  
   1  17    -0.19   0.14   0.07    -0.08   0.09   0.06     0.01  -0.00   0.00
   2  16     0.01  -0.08   0.04     0.09   0.01   0.07     0.01   0.01   0.01
   3   8    -0.07  -0.21  -0.04     0.06   0.17   0.03    -0.01  -0.17   0.03
   4   8    -0.02   0.13  -0.05     0.03  -0.08   0.04    -0.06  -0.14  -0.05
   5   7     0.10   0.12   0.07    -0.22  -0.06   0.05    -0.04   0.08  -0.11
   6   7    -0.07  -0.01  -0.05     0.05  -0.00  -0.01    -0.07   0.10   0.01
   7   7     0.11  -0.06  -0.05     0.08  -0.06  -0.08    -0.01   0.01   0.01
   8   7    -0.01  -0.02   0.01     0.01  -0.04  -0.02     0.26   0.24   0.13
   9   7    -0.10  -0.02  -0.10     0.08   0.03   0.07    -0.03  -0.08  -0.02
  10   6     0.27  -0.03   0.00    -0.09  -0.11  -0.19    -0.06   0.01  -0.07
  11   6     0.13  -0.01  -0.12    -0.01  -0.03  -0.14    -0.03  -0.02  -0.03
  12   6     0.02  -0.01   0.03    -0.09  -0.01  -0.00     0.03   0.20  -0.02
  13   6     0.13  -0.01  -0.11     0.26   0.09   0.10     0.01   0.01   0.03
  14   6    -0.02  -0.05   0.08    -0.20  -0.18  -0.21    -0.04  -0.02  -0.05
  15   6     0.00  -0.01   0.02    -0.00   0.00   0.00     0.03  -0.13   0.11
  16   1     0.37  -0.30  -0.12    -0.01  -0.05  -0.18    -0.11   0.02  -0.06
  17   1     0.40  -0.03   0.32    -0.09  -0.11  -0.22    -0.02   0.02  -0.09
  18   1    -0.02   0.16   0.25    -0.04  -0.12  -0.21    -0.24   0.11  -0.01
  19   1     0.16   0.00  -0.10     0.49   0.24   0.28     0.04   0.04   0.08
  20   1    -0.02   0.09  -0.04     0.05  -0.10  -0.06     0.10  -0.05  -0.18
  21   1    -0.01  -0.00   0.01    -0.03   0.04  -0.02     0.04  -0.38   0.28
  22   1     0.00  -0.01   0.02     0.01   0.01   0.03    -0.25  -0.11  -0.25
  23   1     0.00  -0.01   0.03     0.00   0.01   0.03     0.03  -0.33   0.23
                    19                     20                     21
                     a                      a                      a
 Frequencies --   532.0000               554.5500               564.4700
 Red. masses --     1.1900                 1.5130                 2.9810
 Frc consts  --     0.0                    0.0                    0.0
 IR Inten    --   151.9900                25.3600                17.1200
 Raman Activ --
 Depolar     --
 Atom AN      X      Y      Z        X      Y      Z        X      Y      Z  
   1  17     0.01  -0.00  -0.00     0.02  -0.01  -0.00     0.05  -0.04  -0.01
   2  16    -0.00   0.01   0.01    -0.00   0.01   0.03    -0.02   0.02   0.08
   3   8     0.00   0.02  -0.01     0.00  -0.06  -0.03    -0.03  -0.00   0.01
   4   8     0.01   0.02   0.01    -0.02   0.03   0.00     0.01   0.02  -0.02
   5   7     0.02   0.02  -0.06     0.01  -0.00   0.05     0.11   0.03  -0.01
   6   7     0.05  -0.04  -0.02     0.04  -0.02   0.01    -0.03   0.02   0.03
   7   7    -0.01   0.01   0.00    -0.01   0.03   0.04    -0.04   0.09   0.08
   8   7     0.01  -0.02   0.01     0.02   0.03  -0.01    -0.06  -0.03  -0.00
   9   7     0.01   0.01  -0.00    -0.04   0.00  -0.01     0.00  -0.01  -0.02
  10   6    -0.01  -0.00  -0.03     0.04  -0.00  -0.01     0.12  -0.00  -0.04
  11   6    -0.01  -0.01  -0.01    -0.05  -0.05  -0.06    -0.09  -0.13  -0.15
  12   6    -0.01  -0.02  -0.01     0.05   0.02  -0.00     0.03  -0.04   0.01
  13   6     0.00   0.01   0.01    -0.02   0.02   0.03    -0.06   0.04   0.07
  14   6    -0.01  -0.00  -0.01    -0.05  -0.01  -0.06    -0.11  -0.00  -0.12
  15   6     0.01  -0.01   0.03    -0.01   0.01  -0.02    -0.01   0.02  -0.01
  16   1    -0.03  -0.02  -0.03     0.08   0.03  -0.00     0.18   0.00  -0.05
  17   1     0.03   0.01  -0.02     0.04  -0.00  -0.04     0.20   0.02  -0.05
  18   1    -0.52   0.17   0.56     0.41  -0.12  -0.44    -0.14   0.11   0.33
  19   1     0.00   0.01   0.03     0.01   0.05   0.11    -0.02   0.10   0.26
  20   1    -0.45   0.12   0.38    -0.53   0.18   0.48     0.58  -0.12  -0.43
  21   1    -0.01   0.01   0.02     0.00  -0.01   0.00    -0.00   0.05  -0.05
  22   1    -0.01   0.00   0.05    -0.03   0.02  -0.02     0.06  -0.00   0.02
  23   1     0.01  -0.02   0.05    -0.01   0.00  -0.01    -0.01   0.05  -0.05
                    22                     23                     24
                     a                      a                      a
 Frequencies --   609.5100               643.0900               670.4600
 Red. masses --     5.4060                 8.6090                 4.8290
 Frc consts  --     0.0                    0.0                    0.0
 IR Inten    --     6.6200                 4.9700                 1.8400
 Raman Activ --
 Depolar     --
 Atom AN      X      Y      Z        X      Y      Z        X      Y      Z  
   1  17     0.02  -0.02  -0.01     0.05  -0.05  -0.01     0.00  -0.00  -0.00
   2  16    -0.05  -0.03   0.02    -0.06  -0.26   0.17    -0.10   0.10   0.01
   3   8     0.00   0.00   0.00     0.02   0.07   0.00     0.01  -0.05   0.02
   4   8    -0.00  -0.00   0.00     0.02  -0.04   0.02    -0.01  -0.03  -0.03
   5   7    -0.01   0.01   0.01    -0.09   0.05  -0.02    -0.00  -0.10   0.06
   6   7     0.00   0.00  -0.00    -0.02  -0.02  -0.08     0.06   0.03  -0.06
   7   7    -0.25  -0.10  -0.27     0.04   0.27  -0.12    -0.00   0.03  -0.01
   8   7     0.00  -0.00  -0.00     0.04  -0.05  -0.00     0.08  -0.01  -0.09
   9   7     0.00   0.00   0.00     0.01  -0.00   0.04    -0.01   0.02   0.00
  10   6     0.05  -0.03  -0.07     0.04  -0.00  -0.11     0.13  -0.15  -0.13
  11   6    -0.03  -0.07  -0.10     0.19   0.19   0.05     0.21  -0.10   0.12
  12   6    -0.00   0.00   0.00    -0.16   0.02   0.02    -0.16   0.14   0.24
  13   6     0.11   0.13   0.18    -0.08   0.18  -0.11     0.00  -0.08   0.03
  14   6     0.20   0.19   0.23    -0.04   0.22  -0.12     0.02   0.02  -0.02
  15   6     0.00  -0.00   0.00     0.04  -0.05   0.06    -0.03   0.04  -0.07
  16   1     0.08  -0.01  -0.07     0.07  -0.27  -0.22     0.05   0.30   0.06
  17   1     0.09  -0.02  -0.10     0.03  -0.04   0.24     0.12  -0.11  -0.59
  18   1     0.04  -0.01  -0.06     0.13   0.00  -0.21    -0.22  -0.09   0.03
  19   1     0.38   0.34   0.58    -0.40   0.01  -0.27    -0.28  -0.23  -0.05
  20   1    -0.00  -0.00  -0.00    -0.17  -0.08  -0.01     0.02   0.06  -0.01
  21   1    -0.00  -0.00   0.00     0.01  -0.04   0.05    -0.09   0.08  -0.10
  22   1    -0.00  -0.00   0.00     0.01  -0.04   0.05    -0.06   0.06  -0.04
  23   1     0.00  -0.01   0.01     0.04  -0.06   0.09    -0.02   0.02   0.02
                    25                     26                     27
                     a                      a                      a
 Frequencies --   694.8300               701.2400               747.7800
 Red. masses --     4.2100                 7.1510                 7.4680
 Frc consts  --     0.0                    0.0                    0.0
 IR Inten    --    23.1400                22.7100                 8.2400
 Raman Activ --
 Depolar     --
 Atom AN      X      Y      Z        X      Y      Z        X      Y      Z  
   1  17    -0.00  -0.00   0.00    -0.01   0.00   0.00    -0.03   0.02   0.02
   2  16     0.04  -0.10   0.03    -0.09   0.02   0.05    -0.09   0.04   0.07
   3   8    -0.01  -0.11   0.03    -0.01  -0.04   0.03    -0.01   0.04  -0.04
   4   8    -0.04   0.01  -0.05    -0.04   0.02   0.00     0.04   0.01   0.01
   5   7     0.05  -0.20   0.06    -0.16  -0.03   0.15     0.08   0.03  -0.11
   6   7     0.09   0.06   0.07    -0.03   0.06   0.13    -0.01  -0.06  -0.03
   7   7     0.05   0.03  -0.07     0.08   0.10  -0.12     0.22   0.14  -0.26
   8   7     0.02   0.05  -0.05    -0.10   0.11   0.11     0.02  -0.02  -0.02
   9   7    -0.01   0.03  -0.05     0.04   0.00  -0.06    -0.05  -0.02   0.05
  10   6    -0.14   0.00   0.12    -0.01  -0.13  -0.07    -0.12   0.09   0.25
  11   6    -0.11   0.09  -0.07     0.15  -0.07   0.10    -0.12  -0.23   0.01
  12   6     0.07   0.07   0.16     0.38  -0.16  -0.31    -0.09   0.04   0.04
  13   6     0.03   0.09  -0.05     0.06  -0.08  -0.01     0.13  -0.29   0.03
  14   6    -0.00   0.03  -0.02     0.05   0.08  -0.08     0.13   0.12  -0.19
  15   6    -0.08   0.09  -0.14    -0.03   0.04  -0.04     0.02  -0.02   0.04
  16   1     0.01   0.24   0.18    -0.08   0.20   0.07    -0.24  -0.04   0.22
  17   1    -0.40  -0.02  -0.10     0.01  -0.09  -0.40    -0.04   0.11   0.27
  18   1    -0.39  -0.12   0.33    -0.30  -0.01   0.22     0.17   0.03  -0.13
  19   1     0.18   0.16  -0.05    -0.20  -0.21  -0.07     0.20  -0.19   0.38
  20   1     0.18   0.17   0.07     0.04   0.08   0.08    -0.02  -0.09  -0.04
  21   1    -0.09   0.11  -0.15     0.04  -0.04   0.03     0.01  -0.02   0.03
  22   1    -0.06   0.09  -0.10    -0.02   0.02  -0.08     0.01  -0.02   0.03
  23   1    -0.07   0.09  -0.10    -0.05   0.04  -0.12     0.02  -0.03   0.05
                    28                     29                     30
                     a                      a                      a
 Frequencies --   775.6900               793.4700               860.1200
 Red. masses --    12.3210                 7.7930                 3.6280
 Frc consts  --     0.0                    0.0                    0.0
 IR Inten    --     9.8600                 9.2400                 4.2000
 Raman Activ --
 Depolar     --
 Atom AN      X      Y      Z        X      Y      Z        X      Y      Z  
   1  17    -0.00   0.00   0.00    -0.00   0.00   0.00     0.00  -0.00  -0.00
   2  16    -0.01   0.00   0.00    -0.00   0.01   0.00     0.00  -0.00   0.00
   3   8    -0.23   0.05   0.11     0.19  -0.08   0.27    -0.02   0.10  -0.03
   4   8    -0.14   0.10   0.21    -0.21  -0.22  -0.14     0.06  -0.04   0.09
   5   7     0.01   0.03  -0.04     0.03  -0.01   0.01     0.00  -0.13   0.07
   6   7    -0.08  -0.05   0.17    -0.08   0.30  -0.17    -0.20  -0.02  -0.17
   7   7     0.01   0.01  -0.01     0.01   0.01  -0.00     0.01   0.00   0.02
   8   7     0.04  -0.03  -0.04    -0.10  -0.12  -0.02     0.08   0.09   0.05
   9   7     0.56  -0.15  -0.55     0.16   0.21  -0.04     0.05  -0.07   0.01
  10   6    -0.03   0.00  -0.01     0.08   0.09   0.09     0.14   0.01   0.15
  11   6    -0.00  -0.01   0.01    -0.03  -0.04  -0.02     0.01  -0.00  -0.03
  12   6    -0.12   0.06   0.09    -0.06  -0.09  -0.07    -0.03  -0.01  -0.08
  13   6     0.01  -0.03   0.01    -0.01  -0.04  -0.00    -0.04   0.02  -0.07
  14   6     0.01   0.01  -0.01     0.01   0.00  -0.02    -0.02  -0.01   0.01
  15   6     0.02  -0.01   0.02     0.01  -0.04   0.04    -0.04   0.06  -0.07
  16   1    -0.05  -0.07  -0.04     0.09  -0.03   0.04     0.18   0.33   0.28
  17   1    -0.01  -0.00   0.06     0.11   0.08   0.18     0.03   0.02  -0.22
  18   1     0.15  -0.01  -0.24     0.13  -0.01   0.13    -0.08  -0.10   0.18
  19   1    -0.00  -0.03   0.02     0.08   0.03   0.13     0.25   0.22   0.20
  20   1    -0.04   0.06   0.20    -0.43   0.37   0.08    -0.43  -0.22  -0.13
  21   1    -0.00   0.02  -0.00     0.01   0.07  -0.04    -0.02  -0.07   0.02
  22   1    -0.02   0.01   0.05     0.12  -0.05   0.18    -0.14   0.07  -0.19
  23   1     0.02  -0.03   0.05     0.00   0.07  -0.03    -0.03  -0.05  -0.02
                    31                     32                     33
                     a                      a                      a
 Frequencies --   897.3500               963.7800              1029.0100
 Red. masses --     1.5310                 2.3760                10.2210
 Frc consts  --     0.0                    0.0                    0.0
 IR Inten    --    21.2100                10.4000               173.3800
 Raman Activ --
 Depolar     --
 Atom AN      X      Y      Z        X      Y      Z        X      Y      Z  
   1  17     0.00  -0.00  -0.00    -0.00   0.00   0.00    -0.08   0.04   0.05
   2  16     0.00   0.00   0.00    -0.00   0.00  -0.00    -0.04  -0.02   0.05
   3   8     0.00  -0.01   0.00    -0.00   0.00  -0.01    -0.01  -0.00  -0.01
   4   8    -0.01   0.01  -0.01     0.01  -0.01   0.01     0.01  -0.00   0.01
   5   7    -0.02   0.02  -0.01     0.01  -0.07   0.06    -0.01  -0.00  -0.00
   6   7     0.03  -0.01   0.03    -0.01   0.02  -0.02    -0.00   0.00  -0.00
   7   7     0.01   0.02   0.02    -0.02  -0.00   0.02    -0.14  -0.18   0.23
   8   7    -0.02  -0.01  -0.01     0.09   0.02   0.08    -0.03   0.00  -0.04
   9   7    -0.01   0.01  -0.00     0.00  -0.02   0.00     0.00  -0.00   0.00
  10   6    -0.01  -0.03  -0.03    -0.03   0.13  -0.16     0.02  -0.02   0.02
  11   6     0.06   0.03   0.05    -0.00   0.03   0.05     0.01   0.06  -0.04
  12   6     0.00   0.01   0.00    -0.01  -0.06   0.03     0.01   0.03  -0.01
  13   6    -0.10  -0.06  -0.13    -0.01  -0.12   0.04    -0.10   0.12   0.02
  14   6    -0.01   0.00   0.01     0.04   0.01  -0.04     0.61  -0.02  -0.51
  15   6     0.01  -0.01   0.02    -0.07   0.07  -0.11     0.03  -0.02   0.04
  16   1    -0.07   0.00  -0.00     0.22  -0.42  -0.42     0.06   0.08   0.05
  17   1    -0.02  -0.03  -0.06    -0.07   0.06   0.50    -0.07  -0.02  -0.10
  18   1    -0.04   0.02  -0.06     0.17  -0.05   0.26    -0.10  -0.00  -0.03
  19   1     0.59   0.42   0.63     0.02  -0.06   0.25     0.21   0.19  -0.30
  20   1     0.08   0.02   0.02    -0.03   0.04   0.00    -0.01  -0.02  -0.01
  21   1     0.01   0.01   0.00    -0.06   0.04  -0.08     0.01  -0.01   0.03
  22   1     0.02  -0.01   0.04    -0.07   0.06  -0.12     0.01  -0.01   0.03
  23   1     0.01  -0.00   0.02    -0.06   0.04  -0.09     0.02  -0.02   0.04
                    34                     35                     36
                     a                      a                      a
 Frequencies --  1031.8100              1087.4600              1107.4400
 Red. masses --     6.4720                 3.0900                 4.6140
 Frc consts  --     0.0                    0.0                    0.0
 IR Inten    --    99.9700                55.0900                45.3200
 Raman Activ --
 Depolar     --
 Atom AN      X      Y      Z        X      Y      Z        X      Y      Z  
   1  17    -0.00   0.00   0.00    -0.00   0.00   0.00    -0.00   0.00   0.00
   2  16    -0.00   0.00   0.00    -0.01   0.00   0.00     0.01  -0.01  -0.00
   3   8     0.13   0.01   0.15     0.01   0.00   0.01     0.02   0.03   0.03
   4   8    -0.17   0.10  -0.20    -0.01   0.00  -0.01    -0.01  -0.02  -0.01
   5   7    -0.05  -0.01  -0.04     0.05   0.13  -0.03     0.25   0.13   0.16
   6   7    -0.05  -0.43   0.07     0.03   0.04   0.00    -0.14  -0.07  -0.12
   7   7    -0.01  -0.00   0.01     0.00  -0.01   0.01     0.03  -0.00  -0.03
   8   7     0.10   0.05   0.08     0.15  -0.05   0.16    -0.03  -0.01  -0.07
   9   7     0.05   0.23  -0.00    -0.00  -0.03   0.00     0.02   0.04   0.00
  10   6     0.05   0.04   0.04    -0.09  -0.09   0.05    -0.18  -0.20  -0.14
  11   6     0.02  -0.02  -0.01     0.06  -0.08  -0.03    -0.09   0.08   0.06
  12   6    -0.03  -0.02  -0.02    -0.08  -0.13   0.00     0.11   0.07   0.07
  13   6     0.00   0.01  -0.00    -0.01   0.11  -0.05    -0.02  -0.02   0.03
  14   6     0.01  -0.00  -0.01     0.02  -0.02  -0.00     0.01   0.00  -0.01
  15   6    -0.02   0.08  -0.06    -0.14   0.04  -0.12    -0.00   0.04   0.06
  16   1     0.02   0.02   0.03    -0.53   0.01   0.17    -0.12  -0.01  -0.07
  17   1     0.06   0.04   0.01     0.21  -0.01  -0.19    -0.17  -0.18  -0.20
  18   1    -0.08  -0.03  -0.07     0.35   0.13   0.08     0.34   0.14   0.24
  19   1    -0.02  -0.00  -0.03     0.06   0.13  -0.11     0.09   0.01  -0.04
  20   1     0.06  -0.63  -0.10     0.07   0.19   0.05    -0.26  -0.24  -0.14
  21   1     0.00  -0.12   0.09     0.02   0.12  -0.15     0.21  -0.23   0.27
  22   1    -0.18   0.09  -0.28     0.11  -0.03   0.02     0.02  -0.02  -0.17
  23   1    -0.02  -0.12   0.02    -0.14   0.22  -0.30    -0.06  -0.06  -0.14
                    37                     38                     39
                     a                      a                      a
 Frequencies --  1114.2100              1151.1500              1165.1400
 Red. masses --     1.3830                 1.5630                 5.0680
 Frc consts  --     0.0                    0.0                    0.0
 IR Inten    --     2.8100                37.8000                40.6100
 Raman Activ --
 Depolar     --
 Atom AN      X      Y      Z        X      Y      Z        X      Y      Z  
   1  17    -0.00   0.00   0.00     0.00  -0.00  -0.00     0.00  -0.00  -0.00
   2  16     0.00  -0.00   0.00     0.00  -0.00  -0.00    -0.02   0.02   0.00
   3   8     0.01   0.00   0.00    -0.00   0.00  -0.00    -0.01   0.00  -0.01
   4   8    -0.00  -0.00  -0.00     0.01  -0.01   0.01     0.02  -0.03   0.02
   5   7     0.04   0.02   0.01    -0.02   0.02  -0.02     0.02  -0.06   0.05
   6   7    -0.02  -0.01  -0.01    -0.04  -0.04  -0.03    -0.08  -0.04  -0.06
   7   7     0.00  -0.00  -0.00     0.01   0.00  -0.01    -0.11   0.01   0.08
   8   7    -0.04   0.03   0.06     0.04   0.02   0.03    -0.04   0.03  -0.06
   9   7     0.00   0.00   0.00     0.00   0.03  -0.00     0.01   0.05  -0.01
  10   6    -0.03  -0.03  -0.01     0.04  -0.01  -0.02    -0.20   0.14   0.04
  11   6    -0.00   0.00   0.00    -0.05   0.05   0.02     0.31  -0.25  -0.13
  12   6     0.01   0.00   0.01     0.08   0.05   0.04     0.15   0.10   0.09
  13   6    -0.00   0.01  -0.00    -0.00  -0.03   0.02     0.08   0.10  -0.12
  14   6     0.00  -0.00  -0.00     0.00   0.01  -0.01    -0.03  -0.00   0.03
  15   6     0.09  -0.05  -0.11    -0.09  -0.11  -0.01    -0.00  -0.05   0.04
  16   1    -0.07   0.01   0.01     0.11   0.04  -0.01    -0.36  -0.27  -0.10
  17   1     0.00  -0.02  -0.03    -0.04  -0.02  -0.05    -0.21   0.10   0.44
  18   1     0.08   0.02   0.01    -0.18   0.01  -0.17    -0.05  -0.07   0.03
  19   1     0.01   0.01  -0.02     0.03  -0.03  -0.01    -0.08   0.07   0.03
  20   1    -0.03  -0.03  -0.02    -0.08  -0.10  -0.04    -0.16  -0.18  -0.08
  21   1    -0.46   0.28  -0.36     0.04   0.32  -0.28     0.06   0.07  -0.04
  22   1    -0.22   0.15   0.20     0.41  -0.19   0.53     0.17  -0.08   0.22
  23   1     0.23  -0.14   0.59    -0.05   0.38  -0.18     0.01   0.11  -0.03
                    40                     41                     42
                     a                      a                      a
 Frequencies --  1187.5100              1261.2800              1279.5700
 Red. masses --     2.2810                 3.1470                 1.5980
 Frc consts  --     0.0                    0.0                    0.0
 IR Inten    --     7.2600               248.8000                10.7800
 Raman Activ --
 Depolar     --
 Atom AN      X      Y      Z        X      Y      Z        X      Y      Z  
   1  17    -0.01   0.01   0.00     0.00  -0.00   0.00    -0.00   0.00  -0.00
   2  16     0.00   0.01  -0.01    -0.00   0.00   0.00     0.00   0.00  -0.00
   3   8    -0.00   0.00  -0.00     0.05   0.03   0.05    -0.00  -0.00  -0.00
   4   8     0.00  -0.00   0.00    -0.07   0.11  -0.10    -0.01   0.01  -0.01
   5   7    -0.00  -0.01   0.00     0.05  -0.05   0.07    -0.02  -0.08   0.02
   6   7    -0.01  -0.01  -0.00     0.06   0.02   0.05     0.01  -0.00   0.01
   7   7     0.15  -0.06  -0.09    -0.03   0.00   0.02     0.06  -0.02  -0.05
   8   7    -0.00   0.01  -0.01     0.01   0.13  -0.07    -0.01   0.04  -0.04
   9   7     0.00   0.00  -0.00     0.00  -0.17   0.04     0.01  -0.01   0.01
  10   6    -0.01   0.02  -0.00    -0.06  -0.04   0.02     0.01   0.04  -0.05
  11   6     0.04  -0.01  -0.02     0.04   0.00  -0.03    -0.05  -0.07   0.08
  12   6     0.01   0.01   0.01    -0.15   0.03  -0.16     0.01   0.03  -0.00
  13   6    -0.17   0.13   0.06     0.03  -0.01  -0.02    -0.09   0.07   0.04
  14   6     0.06  -0.12   0.02    -0.00   0.01   0.00    -0.01   0.00   0.00
  15   6    -0.00  -0.01   0.01    -0.00  -0.10   0.05     0.01  -0.02   0.02
  16   1    -0.00  -0.01  -0.02     0.31   0.11   0.02    -0.32  -0.13  -0.05
  17   1    -0.03   0.01   0.05    -0.20  -0.07   0.03     0.60   0.14   0.08
  18   1    -0.01  -0.01  -0.01     0.42  -0.01   0.44     0.16  -0.08   0.20
  19   1    -0.69   0.04   0.64    -0.10  -0.04   0.12     0.36   0.17  -0.42
  20   1    -0.01  -0.02  -0.01    -0.03  -0.21   0.01    -0.04  -0.11  -0.02
  21   1     0.01   0.01  -0.01     0.05   0.15  -0.11     0.02   0.02  -0.01
  22   1     0.03  -0.01   0.04     0.22  -0.12   0.32     0.06  -0.03   0.08
  23   1     0.00   0.02  -0.00     0.01   0.18  -0.03     0.01   0.04  -0.00
                    43                     44                     45
                     a                      a                      a
 Frequencies --  1341.6500              1363.2100              1385.0200
 Red. masses --     1.5080                 4.4810                 1.3460
 Frc consts  --     0.0                    0.0                    0.0
 IR Inten    --    28.8000               206.4800                48.5300
 Raman Activ --
 Depolar     --
 Atom AN      X      Y      Z        X      Y      Z        X      Y      Z  
   1  17     0.00   0.00  -0.00     0.00  -0.00  -0.00     0.00   0.00  -0.00
   2  16    -0.00   0.01  -0.00    -0.00   0.00   0.00     0.00   0.00  -0.00
   3   8     0.02   0.01   0.02    -0.15  -0.13  -0.14    -0.03  -0.02  -0.03
   4   8    -0.00   0.01  -0.00     0.07  -0.12   0.10     0.00  -0.01   0.01
   5   7     0.01   0.04  -0.01     0.03  -0.01   0.02    -0.00   0.01   0.03
   6   7    -0.00  -0.00  -0.01     0.05  -0.03   0.06     0.02   0.01   0.01
   7   7     0.06  -0.03  -0.03     0.00  -0.00  -0.00     0.01  -0.01  -0.01
   8   7     0.01  -0.02   0.02     0.03   0.07  -0.01     0.00   0.03  -0.01
   9   7    -0.01  -0.03  -0.01     0.08   0.33   0.03     0.02   0.04   0.02
  10   6    -0.02   0.02   0.00    -0.09  -0.05   0.02     0.13   0.01  -0.02
  11   6     0.05  -0.11   0.04     0.03  -0.01   0.01    -0.02  -0.01  -0.01
  12   6    -0.01  -0.01  -0.01    -0.14  -0.02  -0.13    -0.03  -0.01  -0.02
  13   6    -0.10   0.05   0.06    -0.01   0.01   0.00    -0.02  -0.00   0.02
  14   6    -0.03   0.02   0.01    -0.00   0.00   0.00    -0.00   0.01  -0.00
  15   6    -0.00   0.01  -0.01    -0.01  -0.03   0.01     0.00  -0.01   0.01
  16   1     0.57   0.03  -0.09     0.63   0.19   0.00    -0.60  -0.16   0.04
  17   1    -0.51  -0.09   0.02     0.13  -0.00  -0.02    -0.71  -0.16   0.03
  18   1    -0.15   0.04  -0.16     0.36   0.00   0.33     0.11   0.01   0.13
  19   1     0.34   0.14  -0.40     0.02   0.01  -0.02     0.05   0.00  -0.07
  20   1     0.03   0.09   0.02     0.09  -0.10  -0.01    -0.03  -0.11  -0.02
  21   1    -0.01  -0.00  -0.00     0.08   0.05  -0.03    -0.00   0.02  -0.01
  22   1    -0.02   0.01  -0.03     0.05  -0.04   0.08     0.00  -0.01   0.02
  23   1    -0.01  -0.01  -0.01     0.03   0.08   0.06     0.00   0.02  -0.01
                    46                     47                     48
                     a                      a                      a
 Frequencies --  1414.4100              1451.6000              1461.7400
 Red. masses --     1.6630                 1.1680                 9.4230
 Frc consts  --     0.0                    0.0                    0.0
 IR Inten    --    11.1300                61.5400               121.2000
 Raman Activ --
 Depolar     --
 Atom AN      X      Y      Z        X      Y      Z        X      Y      Z  
   1  17    -0.00   0.00   0.00     0.00  -0.00  -0.00    -0.01   0.01   0.01
   2  16     0.00  -0.00   0.00    -0.00   0.00   0.00     0.00  -0.00   0.00
   3   8     0.04   0.03   0.04     0.02   0.01   0.02     0.00   0.00   0.00
   4   8     0.03  -0.04   0.04     0.01  -0.01   0.01    -0.00   0.00  -0.00
   5   7     0.01  -0.01   0.02     0.00  -0.01   0.01     0.00   0.01  -0.01
   6   7    -0.05  -0.09  -0.02    -0.01  -0.03  -0.00     0.00   0.00  -0.00
   7   7    -0.00   0.00  -0.00     0.00  -0.01   0.00    -0.17   0.43  -0.10
   8   7     0.01   0.09  -0.05    -0.01   0.01  -0.01    -0.00   0.00  -0.00
   9   7    -0.06   0.02  -0.06    -0.02  -0.00  -0.02     0.00  -0.01   0.00
  10   6     0.01  -0.00  -0.01     0.01   0.00  -0.00     0.05   0.02  -0.05
  11   6    -0.01   0.00   0.00     0.00   0.00  -0.00    -0.15  -0.14   0.21
  12   6    -0.03  -0.04  -0.01    -0.01   0.01  -0.02    -0.00  -0.00  -0.00
  13   6     0.00   0.00  -0.00    -0.00  -0.00   0.00     0.09   0.13  -0.15
  14   6     0.00  -0.00   0.00    -0.00   0.01  -0.00     0.23  -0.54   0.11
  15   6     0.04  -0.05   0.07    -0.06   0.02  -0.07    -0.01   0.00  -0.01
  16   1    -0.09  -0.01   0.01    -0.06   0.01   0.01     0.32  -0.03  -0.11
  17   1    -0.01  -0.01   0.02    -0.03  -0.01   0.03    -0.30  -0.06   0.04
  18   1     0.04  -0.02   0.04     0.01  -0.01   0.02     0.03   0.02   0.03
  19   1    -0.01  -0.00   0.01     0.00  -0.00  -0.00     0.05   0.15  -0.16
  20   1     0.34   0.75   0.13     0.13   0.26   0.05     0.00   0.01   0.00
  21   1    -0.04   0.23  -0.15     0.54  -0.25   0.18     0.08  -0.04   0.03
  22   1    -0.21   0.00  -0.19     0.22  -0.04   0.22     0.04  -0.01   0.03
  23   1    -0.00   0.21  -0.18     0.12   0.01   0.62     0.02  -0.01   0.09
                    49                     50                     51
                     a                      a                      a
 Frequencies --  1468.5100              1503.1900              1515.9500
 Red. masses --     1.0860                 1.0860                 1.0430
 Frc consts  --     0.0                    0.0                    0.0
 IR Inten    --     4.6000                 4.5500                 6.5900
 Raman Activ --
 Depolar     --
 Atom AN      X      Y      Z        X      Y      Z        X      Y      Z  
   1  17     0.00  -0.00  -0.00     0.00  -0.00  -0.00    -0.00   0.00   0.00
   2  16     0.00  -0.00   0.00     0.00   0.00  -0.00    -0.00   0.00  -0.00
   3   8    -0.00   0.00  -0.00    -0.01  -0.01  -0.01     0.00   0.00   0.00
   4   8    -0.00   0.00  -0.00    -0.01   0.01  -0.01     0.00  -0.00   0.00
   5   7    -0.01   0.00  -0.01     0.00   0.01  -0.00    -0.00   0.00  -0.00
   6   7    -0.00  -0.00  -0.00     0.01   0.02   0.00    -0.00  -0.00  -0.00
   7   7    -0.00  -0.00   0.00     0.00  -0.00   0.00    -0.00   0.00  -0.00
   8   7    -0.00   0.01  -0.01    -0.01  -0.02   0.01     0.01  -0.00  -0.01
   9   7     0.00  -0.00   0.00     0.02  -0.01   0.02    -0.00   0.00   0.00
  10   6    -0.01   0.03   0.07    -0.00   0.00  -0.00     0.00  -0.00  -0.00
  11   6     0.00   0.01   0.00    -0.00  -0.00   0.00    -0.00  -0.00   0.00
  12   6     0.01  -0.01   0.01     0.01  -0.01   0.01     0.00  -0.00   0.00
  13   6     0.00  -0.00  -0.00     0.00  -0.00  -0.00    -0.00  -0.00  -0.00
  14   6    -0.00   0.00   0.00    -0.00   0.00  -0.00     0.00  -0.00   0.00
  15   6     0.00  -0.00  -0.00    -0.01  -0.05   0.02     0.03  -0.02  -0.04
  16   1     0.11  -0.64  -0.24     0.01   0.02   0.00     0.00   0.01   0.01
  17   1    -0.03   0.09  -0.69     0.02   0.00   0.02    -0.00  -0.00   0.01
  18   1     0.10   0.01   0.09    -0.06   0.00  -0.06     0.01   0.00   0.01
  19   1    -0.02  -0.01   0.02     0.00   0.00   0.00     0.00   0.00   0.00
  20   1    -0.00   0.01  -0.00    -0.10  -0.19  -0.04     0.03   0.00  -0.02
  21   1     0.03  -0.00   0.00     0.46   0.25  -0.14    -0.12  -0.43   0.26
  22   1    -0.01   0.00   0.01    -0.40   0.05  -0.40    -0.43   0.30   0.47
  23   1     0.01   0.03   0.04     0.12   0.52   0.20     0.04   0.45  -0.17
                    52                     53                     54
                     a                      a                      a
 Frequencies --  1549.1100              1569.1900              1659.7900
 Red. masses --     1.7680                 5.8170                 3.9010
 Frc consts  --     0.0                    0.0                    0.0
 IR Inten    --   309.6900                18.8200               290.7700
 Raman Activ --
 Depolar     --
 Atom AN      X      Y      Z        X      Y      Z        X      Y      Z  
   1  17    -0.00   0.00   0.00    -0.00   0.00   0.00    -0.00   0.00   0.00
   2  16     0.00  -0.00   0.00    -0.00   0.00   0.00    -0.00  -0.00   0.00
   3   8     0.00  -0.00   0.00     0.00   0.00   0.00     0.10   0.04   0.10
   4   8     0.01  -0.01   0.01    -0.00   0.00  -0.00     0.09  -0.07   0.11
   5   7     0.13  -0.01   0.13    -0.04  -0.00  -0.03    -0.02   0.00  -0.02
   6   7     0.03   0.02   0.02    -0.01  -0.00  -0.01     0.07   0.05   0.06
   7   7    -0.01   0.02  -0.00    -0.04   0.17  -0.07    -0.00  -0.00   0.00
   8   7     0.02   0.02   0.00    -0.00  -0.01   0.00     0.00  -0.01   0.01
   9   7    -0.02   0.01  -0.02     0.00  -0.00   0.00    -0.26   0.05  -0.30
  10   6    -0.03   0.03  -0.01    -0.05  -0.02   0.06     0.01  -0.01   0.01
  11   6     0.01   0.02  -0.02     0.22   0.20  -0.31    -0.00  -0.00   0.00
  12   6    -0.10  -0.04  -0.10     0.03   0.02   0.02    -0.02   0.00  -0.01
  13   6    -0.01  -0.01   0.02    -0.19  -0.21   0.28     0.00   0.00   0.00
  14   6     0.01  -0.02   0.01     0.05  -0.18   0.06     0.00   0.00  -0.00
  15   6    -0.00  -0.01   0.00    -0.00   0.00  -0.00    -0.00  -0.00   0.00
  16   1    -0.20  -0.19  -0.07    -0.15   0.08   0.12     0.03   0.02   0.01
  17   1     0.15   0.08  -0.07     0.11   0.02  -0.02    -0.06  -0.02  -0.01
  18   1    -0.68  -0.06  -0.58     0.18   0.01   0.15     0.21   0.00   0.20
  19   1     0.03  -0.01  -0.03     0.52  -0.09  -0.41    -0.00  -0.00  -0.00
  20   1    -0.02  -0.12  -0.02     0.01   0.04   0.01    -0.28  -0.77  -0.12
  21   1    -0.03  -0.03   0.01     0.00   0.01  -0.01     0.03   0.04  -0.02
  22   1     0.03  -0.01   0.07    -0.02   0.00  -0.03    -0.04   0.01  -0.04
  23   1    -0.01  -0.01  -0.02     0.00   0.01  -0.00     0.01   0.05  -0.00
                    55                     56                     57
                     a                      a                      a
 Frequencies --  1725.7100              2957.8600              2999.8100
 Red. masses --     6.9550                 1.0430                 1.1020
 Frc consts  --     0.0                    0.0                    0.0
 IR Inten    --   403.5700                71.3800                40.3600
 Raman Activ --
 Depolar     --
 Atom AN      X      Y      Z        X      Y      Z        X      Y      Z  
   1  17    -0.00   0.00   0.00     0.00  -0.00  -0.00     0.00   0.00   0.00
   2  16     0.00  -0.00   0.00     0.00   0.00  -0.00     0.00   0.00   0.00
   3   8     0.01   0.01   0.01    -0.00  -0.00  -0.00     0.00   0.00  -0.00
   4   8     0.01  -0.01   0.01    -0.00   0.00  -0.00     0.00   0.00  -0.00
   5   7     0.03  -0.08   0.07     0.00  -0.00   0.00    -0.00   0.00   0.00
   6   7    -0.00  -0.06   0.02    -0.00  -0.00   0.00     0.00  -0.00  -0.00
   7   7    -0.00  -0.00   0.00     0.00  -0.00  -0.00     0.00   0.00  -0.00
   8   7    -0.00  -0.34   0.19     0.00  -0.00   0.00     0.00   0.00  -0.00
   9   7    -0.03   0.00  -0.02     0.00   0.00  -0.00    -0.00   0.00   0.00
  10   6     0.02   0.02  -0.00    -0.00  -0.00   0.00    -0.00   0.00  -0.00
  11   6    -0.01  -0.01   0.00    -0.00   0.00   0.00    -0.00  -0.00   0.00
  12   6    -0.01   0.50  -0.29     0.00   0.00  -0.00     0.00  -0.00  -0.00
  13   6     0.00   0.01  -0.01     0.00  -0.00   0.00    -0.00   0.00  -0.00
  14   6     0.00  -0.00  -0.00    -0.00   0.00   0.00     0.00  -0.00   0.00
  15   6    -0.02  -0.00  -0.02     0.04   0.02   0.04    -0.06   0.04   0.06
  16   1    -0.12  -0.14  -0.04    -0.00   0.00  -0.00     0.00  -0.00   0.00
  17   1    -0.06   0.02  -0.08     0.00  -0.00  -0.00    -0.00  -0.00  -0.00
  18   1     0.12  -0.05   0.25     0.00  -0.00   0.00    -0.00   0.00  -0.00
  19   1    -0.03  -0.00   0.01    -0.00   0.00   0.00     0.00  -0.00   0.00
  20   1     0.25   0.41   0.10    -0.01  -0.00  -0.01    -0.00   0.00   0.00
  21   1    -0.10   0.12  -0.07     0.06  -0.42  -0.61     0.03  -0.37  -0.52
  22   1    -0.18   0.01  -0.17     0.07   0.16  -0.03    -0.03  -0.00   0.03
  23   1    -0.02   0.08  -0.17    -0.61   0.09   0.16     0.73  -0.09  -0.17
                    58                     59                     60
                     a                      a                      a
 Frequencies --  3067.0900              3099.3800              3114.6100
 Red. masses --     1.0610                 1.0910                 1.1040
 Frc consts  --     0.0                    0.0                    0.0
 IR Inten    --    21.2800                24.5500                 1.4800
 Raman Activ --
 Depolar     --
 Atom AN      X      Y      Z        X      Y      Z        X      Y      Z  
   1  17     0.00   0.00   0.00     0.00   0.00   0.00     0.00  -0.00   0.00
   2  16     0.00  -0.00  -0.00     0.00   0.00   0.00     0.00  -0.00  -0.00
   3   8     0.00   0.00   0.00    -0.00  -0.00  -0.00     0.00  -0.00   0.00
   4   8     0.00   0.00   0.00     0.00  -0.00   0.00     0.00  -0.00   0.00
   5   7     0.00  -0.00   0.00     0.00  -0.00   0.00     0.00  -0.00   0.00
   6   7    -0.00   0.00   0.00     0.00  -0.00  -0.00    -0.00  -0.00   0.00
   7   7    -0.00   0.00   0.00     0.00   0.00  -0.00    -0.00  -0.00   0.00
   8   7    -0.00  -0.00  -0.00     0.00  -0.00   0.00    -0.00  -0.00  -0.00
   9   7    -0.00  -0.00  -0.00     0.00   0.00   0.00    -0.00   0.00  -0.00
  10   6     0.00   0.02   0.07     0.00  -0.00   0.00    -0.02   0.08  -0.03
  11   6    -0.00  -0.00   0.00     0.00   0.00   0.00    -0.00   0.00  -0.00
  12   6    -0.00   0.00  -0.00    -0.00   0.00  -0.00     0.00   0.00  -0.00
  13   6     0.00  -0.00  -0.00     0.00  -0.00   0.00     0.00  -0.00  -0.00
  14   6    -0.00  -0.00   0.00    -0.00   0.00   0.00     0.00  -0.00  -0.00
  15   6    -0.00   0.00  -0.00    -0.04  -0.08   0.01    -0.00  -0.00   0.00
  16   1    -0.13   0.32  -0.76    -0.00   0.00  -0.01     0.08  -0.19   0.49
  17   1     0.10  -0.53  -0.04    -0.00   0.01   0.00     0.16  -0.82  -0.08
  18   1     0.00   0.00   0.00     0.00  -0.00  -0.00    -0.01   0.01  -0.00
  19   1    -0.00   0.00   0.00    -0.00   0.00  -0.00    -0.00   0.00   0.00
  20   1     0.00   0.00   0.00     0.00   0.00  -0.00     0.00   0.00   0.00
  21   1     0.00   0.00   0.00    -0.02   0.05   0.09    -0.00   0.00   0.00
  22   1    -0.00  -0.00   0.00     0.39   0.88  -0.21     0.01   0.01  -0.00
  23   1     0.00  -0.00  -0.00     0.10  -0.03  -0.03     0.00  -0.00  -0.00
                    61                     62                     63
                     a                      a                      a
 Frequencies --  3228.1500              3594.9400              3622.5400
 Red. masses --     1.0940                 1.0770                 1.0780
 Frc consts  --     0.0                    0.0                    0.0
 IR Inten    --     2.0700               131.8100                68.0300
 Raman Activ --
 Depolar     --
 Atom AN      X      Y      Z        X      Y      Z        X      Y      Z  
   1  17    -0.00   0.00   0.00     0.00  -0.00  -0.00     0.00   0.00   0.00
   2  16     0.00  -0.00  -0.00     0.00   0.00   0.00     0.00  -0.00   0.00
   3   8    -0.00  -0.00  -0.00     0.00  -0.00   0.00     0.00   0.00   0.00
   4   8     0.00  -0.00   0.00     0.00  -0.00   0.00    -0.00   0.00  -0.00
   5   7     0.00   0.00   0.00    -0.01  -0.07   0.01    -0.00  -0.00  -0.00
   6   7     0.00  -0.00   0.00    -0.00  -0.00  -0.00     0.04  -0.03   0.06
   7   7     0.00   0.00  -0.00     0.00  -0.00  -0.00    -0.00   0.00   0.00
   8   7    -0.00  -0.00   0.00    -0.00   0.00  -0.00     0.00  -0.00   0.00
   9   7     0.00   0.00  -0.00    -0.00   0.00  -0.00    -0.00  -0.00   0.00
  10   6     0.00   0.00  -0.00     0.00   0.00  -0.00     0.00   0.00   0.00
  11   6    -0.00  -0.00   0.00     0.00   0.00   0.00     0.00   0.00  -0.00
  12   6     0.00   0.00  -0.00     0.00  -0.00   0.00    -0.00   0.00  -0.00
  13   6    -0.03   0.08  -0.02    -0.00   0.00   0.00     0.00   0.00   0.00
  14   6     0.00  -0.00   0.00    -0.00   0.00  -0.00     0.00   0.00  -0.00
  15   6    -0.00  -0.00   0.00     0.00   0.00   0.00    -0.00   0.00  -0.00
  16   1     0.00  -0.00  -0.00    -0.00   0.00  -0.00    -0.00   0.00  -0.00
  17   1     0.00  -0.00  -0.00     0.00   0.01   0.00     0.00   0.00   0.00
  18   1    -0.00  -0.00   0.00     0.08   0.98  -0.16     0.00   0.03  -0.00
  19   1     0.40  -0.89   0.20     0.00  -0.00   0.00    -0.00   0.00  -0.00
  20   1    -0.00   0.00  -0.00     0.01  -0.01   0.02    -0.50   0.38  -0.77
  21   1    -0.00   0.00   0.00     0.00  -0.00  -0.00    -0.00   0.00   0.01
  22   1     0.00   0.00  -0.00    -0.00   0.00  -0.00    -0.00  -0.00   0.00
  23   1    -0.00   0.00  -0.00    -0.00   0.00  -0.00     0.00  -0.00  -0.00




